 Entering Gaussian System, Link 0=g16
 Initial command:
 /opt/software/gaussian/g16.b01/l1.exe "/localscratch/sarashs.36567449.0/Gau-7580.inp" -scrdir="/localscratch/sarashs.36567449.0/"
 Entering Link 1 = /opt/software/gaussian/g16.b01/l1.exe PID=      7586.
  
 Copyright (c) 1988-2017, Gaussian, Inc.  All Rights Reserved.
  
 This is part of the Gaussian(R) 16 program.  It is based on
 the Gaussian(R) 09 system (copyright 2009, Gaussian, Inc.),
 the Gaussian(R) 03 system (copyright 2003, Gaussian, Inc.),
 the Gaussian(R) 98 system (copyright 1998, Gaussian, Inc.),
 the Gaussian(R) 94 system (copyright 1995, Gaussian, Inc.),
 the Gaussian 92(TM) system (copyright 1992, Gaussian, Inc.),
 the Gaussian 90(TM) system (copyright 1990, Gaussian, Inc.),
 the Gaussian 88(TM) system (copyright 1988, Gaussian, Inc.),
 the Gaussian 86(TM) system (copyright 1986, Carnegie Mellon
 University), and the Gaussian 82(TM) system (copyright 1983,
 Carnegie Mellon University). Gaussian is a federally registered
 trademark of Gaussian, Inc.
  
 This software contains proprietary and confidential information,
 including trade secrets, belonging to Gaussian, Inc.
  
 This software is provided under written license and may be
 used, copied, transmitted, or stored only in accord with that
 written license.
  
 The following legend is applicable only to US Government
 contracts under FAR:
  
                    RESTRICTED RIGHTS LEGEND
  
 Use, reproduction and disclosure by the US Government is
 subject to restrictions as set forth in subparagraphs (a)
 and (c) of the Commercial Computer Software - Restricted
 Rights clause in FAR 52.227-19.
  
 Gaussian, Inc.
 340 Quinnipiac St., Bldg. 40, Wallingford CT 06492
  
  
 ---------------------------------------------------------------
 Warning -- This program may not be used in any manner that
 competes with the business of Gaussian, Inc. or will provide
 assistance to any competitor of Gaussian, Inc.  The licensee
 of this program is prohibited from giving any competitor of
 Gaussian, Inc. access to this program.  By using this program,
 the user acknowledges that Gaussian, Inc. is engaged in the
 business of creating and licensing software in the field of
 computational chemistry and represents and warrants to the
 licensee that it is not a competitor of Gaussian, Inc. and that
 it will not use this program in any manner prohibited above.
 ---------------------------------------------------------------
  

 Cite this work as:
 Gaussian 16, Revision B.01,
 M. J. Frisch, G. W. Trucks, H. B. Schlegel, G. E. Scuseria, 
 M. A. Robb, J. R. Cheeseman, G. Scalmani, V. Barone, 
 G. A. Petersson, H. Nakatsuji, X. Li, M. Caricato, A. V. Marenich, 
 J. Bloino, B. G. Janesko, R. Gomperts, B. Mennucci, H. P. Hratchian, 
 J. V. Ortiz, A. F. Izmaylov, J. L. Sonnenberg, D. Williams-Young, 
 F. Ding, F. Lipparini, F. Egidi, J. Goings, B. Peng, A. Petrone, 
 T. Henderson, D. Ranasinghe, V. G. Zakrzewski, J. Gao, N. Rega, 
 G. Zheng, W. Liang, M. Hada, M. Ehara, K. Toyota, R. Fukuda, 
 J. Hasegawa, M. Ishida, T. Nakajima, Y. Honda, O. Kitao, H. Nakai, 
 T. Vreven, K. Throssell, J. A. Montgomery, Jr., J. E. Peralta, 
 F. Ogliaro, M. J. Bearpark, J. J. Heyd, E. N. Brothers, K. N. Kudin, 
 V. N. Staroverov, T. A. Keith, R. Kobayashi, J. Normand, 
 K. Raghavachari, A. P. Rendell, J. C. Burant, S. S. Iyengar, 
 J. Tomasi, M. Cossi, J. M. Millam, M. Klene, C. Adamo, R. Cammi, 
 J. W. Ochterski, R. L. Martin, K. Morokuma, O. Farkas, 
 J. B. Foresman, and D. J. Fox, Gaussian, Inc., Wallingford CT, 2016.
 
 ******************************************
 Gaussian 16:  ES64L-G16RevB.01 20-Dec-2017
                29-Jul-2020 
 ******************************************
 %NProcShared=16
 Will use up to   16 processors via shared memory.
 ------------------------------------------------------------------
 #n B3LYP/Gen Pseudo=cards EmpiricalDispersion=GD3 Opt=modredundant
 ------------------------------------------------------------------
 1/18=120,19=15,26=3,38=1/1,3;
 2/9=110,12=2,17=6,18=5,40=1/2;
 3/5=7,11=2,16=1,17=8,25=1,30=1,71=1,74=-5,124=31/1,2,3;
 4//1;
 5/5=2,38=5/2;
 6/7=2,8=2,9=2,10=2,28=1/1;
 7//1,2,3,16;
 1/18=20,19=15,26=3/3(2);
 2/9=110/2;
 99//99;
 2/9=110/2;
 3/5=7,6=1,11=2,16=1,17=8,25=1,30=1,71=1,74=-5,82=7,124=31/1,2,3;
 4/5=5,16=3,69=1/1;
 5/5=2,38=5/2;
 7//1,2,3,16;
 1/18=20,19=15,26=3/3(-5);
 2/9=110/2;
 6/7=2,8=2,9=2,10=2,19=2,28=1/1;
 99/9=1/99;
 -----
 Title
 -----
 Symbolic Z-matrix:
 Charge =  0 Multiplicity = 1
 Si                   -0.13817   0.15907  -0.88672 
 O                    -1.00571  -1.21557  -1.00367 
 O                     0.58179   0.25267   0.61501 
 O                    -1.1339    1.45311  -1.10627 
 O                     1.18134   0.19206  -1.82677 
 Si                   -2.69339   1.74371  -0.65114 
 Si                    0.45246   0.31404   2.26262 
 Si                   -2.1548   -2.1204   -0.22503 
 Zr                    2.93777  -0.00898  -0.84249 
 O                     4.30526   0.05415  -2.19844 
 O                     3.04358  -1.71822   0.04979 
 O                     3.39885   1.47711   0.42493 
 O                    -3.55825  -2.00436  -1.06221 
 O                    -2.28687  -1.57711   1.34004 
 O                    -1.66915  -3.67748  -0.08045 
 O                    -3.00596   3.33412  -0.93077 
 O                    -2.92057   1.21838   0.89035 
 O                    -3.78511   0.84272  -1.51643 
 O                    -0.76335   1.45159   2.52316 
 O                     1.87673   0.80442   2.88257 
 O                     0.04596  -1.13257   2.9006 
 H                     4.14857   2.08248   0.40465 
 H                     4.98918  -0.21873  -2.81218 
 H                     2.76378  -2.30971   0.75373 
 H                    -3.79221  -1.10963  -1.36628 
 H                    -1.5614   -4.18568  -0.89124 
 H                    -2.80623  -0.75615   1.40497 
 H                     2.4905    1.16992   2.20997 
 H                    -0.78842  -1.49858   2.54684 
 H                    -0.84185   1.77955   3.42764 
 H                    -4.15196   1.2615   -2.30365 
 H                    -2.24428   3.9095   -1.06409 
 H                    -2.21087   1.44549   1.53341 
 
 The following ModRedundant input section has been read:
 A       1       5       9 F                                                   
 

 GradGradGradGradGradGradGradGradGradGradGradGradGradGradGradGradGradGrad
 Berny optimization.
 Initialization pass.
                           ----------------------------
                           !    Initial Parameters    !
                           ! (Angstroms and Degrees)  !
 --------------------------                            --------------------------
 ! Name  Definition              Value          Derivative Info.                !
 --------------------------------------------------------------------------------
 ! R1    R(1,2)                  1.6297         estimate D2E/DX2                !
 ! R2    R(1,3)                  1.668          estimate D2E/DX2                !
 ! R3    R(1,4)                  1.6475         estimate D2E/DX2                !
 ! R4    R(1,5)                  1.6205         estimate D2E/DX2                !
 ! R5    R(1,9)                  3.0808         estimate D2E/DX2                !
 ! R6    R(2,8)                  1.6569         estimate D2E/DX2                !
 ! R7    R(3,7)                  1.6538         estimate D2E/DX2                !
 ! R8    R(4,6)                  1.6503         estimate D2E/DX2                !
 ! R9    R(5,9)                  2.0234         estimate D2E/DX2                !
 ! R10   R(6,16)                 1.6448         estimate D2E/DX2                !
 ! R11   R(6,17)                 1.6443         estimate D2E/DX2                !
 ! R12   R(6,18)                 1.659          estimate D2E/DX2                !
 ! R13   R(7,19)                 1.6853         estimate D2E/DX2                !
 ! R14   R(7,20)                 1.6289         estimate D2E/DX2                !
 ! R15   R(7,21)                 1.6325         estimate D2E/DX2                !
 ! R16   R(8,13)                 1.6383         estimate D2E/DX2                !
 ! R17   R(8,14)                 1.6619         estimate D2E/DX2                !
 ! R18   R(8,15)                 1.6375         estimate D2E/DX2                !
 ! R19   R(9,10)                 1.9268         estimate D2E/DX2                !
 ! R20   R(9,11)                 1.931          estimate D2E/DX2                !
 ! R21   R(9,12)                 2.0068         estimate D2E/DX2                !
 ! R22   R(10,23)                0.9586         estimate D2E/DX2                !
 ! R23   R(11,24)                0.9611         estimate D2E/DX2                !
 ! R24   R(12,22)                0.9638         estimate D2E/DX2                !
 ! R25   R(13,25)                0.9735         estimate D2E/DX2                !
 ! R26   R(14,27)                0.9736         estimate D2E/DX2                !
 ! R27   R(15,26)                0.9629         estimate D2E/DX2                !
 ! R28   R(16,32)                0.9638         estimate D2E/DX2                !
 ! R29   R(17,33)                0.9843         estimate D2E/DX2                !
 ! R30   R(18,31)                0.9642         estimate D2E/DX2                !
 ! R31   R(19,30)                0.9653         estimate D2E/DX2                !
 ! R32   R(20,28)                0.9812         estimate D2E/DX2                !
 ! R33   R(21,29)                0.9774         estimate D2E/DX2                !
 ! A1    A(2,1,3)              109.9808         estimate D2E/DX2                !
 ! A2    A(2,1,4)              109.3435         estimate D2E/DX2                !
 ! A3    A(2,1,5)              114.1426         estimate D2E/DX2                !
 ! A4    A(2,1,9)              119.111          estimate D2E/DX2                !
 ! A5    A(3,1,4)              109.6804         estimate D2E/DX2                !
 ! A6    A(3,1,5)               99.7688         estimate D2E/DX2                !
 ! A7    A(3,1,9)               63.8449         estimate D2E/DX2                !
 ! A8    A(4,1,5)              113.5061         estimate D2E/DX2                !
 ! A9    A(4,1,9)              130.4051         estimate D2E/DX2                !
 ! A10   A(1,2,8)              142.7567         estimate D2E/DX2                !
 ! A11   A(1,3,7)              149.9119         estimate D2E/DX2                !
 ! A12   A(1,4,6)              132.2743         estimate D2E/DX2                !
 ! A13   A(1,5,9)              115.0001         Frozen                          !
 ! A14   A(4,6,16)             107.6353         estimate D2E/DX2                !
 ! A15   A(4,6,17)             109.4409         estimate D2E/DX2                !
 ! A16   A(4,6,18)             112.4799         estimate D2E/DX2                !
 ! A17   A(16,6,17)            116.2345         estimate D2E/DX2                !
 ! A18   A(16,6,18)            108.144          estimate D2E/DX2                !
 ! A19   A(17,6,18)            102.9751         estimate D2E/DX2                !
 ! A20   A(3,7,19)             103.6202         estimate D2E/DX2                !
 ! A21   A(3,7,20)             108.7814         estimate D2E/DX2                !
 ! A22   A(3,7,21)             112.0818         estimate D2E/DX2                !
 ! A23   A(19,7,20)            111.639          estimate D2E/DX2                !
 ! A24   A(19,7,21)            110.9828         estimate D2E/DX2                !
 ! A25   A(20,7,21)            109.6189         estimate D2E/DX2                !
 ! A26   A(2,8,13)             108.3776         estimate D2E/DX2                !
 ! A27   A(2,8,14)             108.6105         estimate D2E/DX2                !
 ! A28   A(2,8,15)             110.799          estimate D2E/DX2                !
 ! A29   A(13,8,14)            112.954          estimate D2E/DX2                !
 ! A30   A(13,8,15)            111.5028         estimate D2E/DX2                !
 ! A31   A(14,8,15)            104.553          estimate D2E/DX2                !
 ! A32   A(1,9,10)             134.1625         estimate D2E/DX2                !
 ! A33   A(1,9,11)              96.2936         estimate D2E/DX2                !
 ! A34   A(1,9,12)             101.4237         estimate D2E/DX2                !
 ! A35   A(5,9,10)             105.6933         estimate D2E/DX2                !
 ! A36   A(5,9,11)             111.1175         estimate D2E/DX2                !
 ! A37   A(5,9,12)             115.6628         estimate D2E/DX2                !
 ! A38   A(10,9,11)            108.3781         estimate D2E/DX2                !
 ! A39   A(10,9,12)            104.899          estimate D2E/DX2                !
 ! A40   A(11,9,12)            110.5514         estimate D2E/DX2                !
 ! A41   A(9,10,23)            161.3692         estimate D2E/DX2                !
 ! A42   A(9,11,24)            150.1404         estimate D2E/DX2                !
 ! A43   A(9,12,22)            129.0896         estimate D2E/DX2                !
 ! A44   A(8,13,25)            115.5044         estimate D2E/DX2                !
 ! A45   A(8,14,27)            112.3856         estimate D2E/DX2                !
 ! A46   A(8,15,26)            117.432          estimate D2E/DX2                !
 ! A47   A(6,16,32)            116.7803         estimate D2E/DX2                !
 ! A48   A(6,17,33)            116.0494         estimate D2E/DX2                !
 ! A49   A(6,18,31)            116.1247         estimate D2E/DX2                !
 ! A50   A(7,19,30)            115.6491         estimate D2E/DX2                !
 ! A51   A(7,20,28)            113.4661         estimate D2E/DX2                !
 ! A52   A(7,21,29)            113.7637         estimate D2E/DX2                !
 ! D1    D(3,1,2,8)             50.0624         estimate D2E/DX2                !
 ! D2    D(4,1,2,8)            -70.4297         estimate D2E/DX2                !
 ! D3    D(5,1,2,8)            161.2125         estimate D2E/DX2                !
 ! D4    D(9,1,2,8)            120.5271         estimate D2E/DX2                !
 ! D5    D(2,1,3,7)            -60.1512         estimate D2E/DX2                !
 ! D6    D(4,1,3,7)             60.1373         estimate D2E/DX2                !
 ! D7    D(5,1,3,7)            179.5701         estimate D2E/DX2                !
 ! D8    D(9,1,3,7)           -173.6144         estimate D2E/DX2                !
 ! D9    D(2,1,4,6)             37.0076         estimate D2E/DX2                !
 ! D10   D(3,1,4,6)            -83.6678         estimate D2E/DX2                !
 ! D11   D(5,1,4,6)            165.7183         estimate D2E/DX2                !
 ! D12   D(9,1,4,6)           -155.5883         estimate D2E/DX2                !
 ! D13   D(2,1,9,10)            91.4623         estimate D2E/DX2                !
 ! D14   D(2,1,9,11)           -31.8554         estimate D2E/DX2                !
 ! D15   D(2,1,9,12)          -144.3502         estimate D2E/DX2                !
 ! D16   D(3,1,9,10)          -169.1991         estimate D2E/DX2                !
 ! D17   D(3,1,9,11)            67.4833         estimate D2E/DX2                !
 ! D18   D(3,1,9,12)           -45.0116         estimate D2E/DX2                !
 ! D19   D(4,1,9,10)           -74.9157         estimate D2E/DX2                !
 ! D20   D(4,1,9,11)           161.7666         estimate D2E/DX2                !
 ! D21   D(4,1,9,12)            49.2718         estimate D2E/DX2                !
 ! D22   D(1,2,8,13)           108.4711         estimate D2E/DX2                !
 ! D23   D(1,2,8,14)           -14.5876         estimate D2E/DX2                !
 ! D24   D(1,2,8,15)          -128.8886         estimate D2E/DX2                !
 ! D25   D(1,3,7,19)           -46.0619         estimate D2E/DX2                !
 ! D26   D(1,3,7,20)          -164.9541         estimate D2E/DX2                !
 ! D27   D(1,3,7,21)            73.6681         estimate D2E/DX2                !
 ! D28   D(1,4,6,16)           169.4411         estimate D2E/DX2                !
 ! D29   D(1,4,6,17)            42.2775         estimate D2E/DX2                !
 ! D30   D(1,4,6,18)           -71.5346         estimate D2E/DX2                !
 ! D31   D(4,6,16,32)          -16.3726         estimate D2E/DX2                !
 ! D32   D(17,6,16,32)         106.7215         estimate D2E/DX2                !
 ! D33   D(18,6,16,32)        -138.134          estimate D2E/DX2                !
 ! D34   D(4,6,17,33)           44.2632         estimate D2E/DX2                !
 ! D35   D(16,6,17,33)         -77.8848         estimate D2E/DX2                !
 ! D36   D(18,6,17,33)         164.0932         estimate D2E/DX2                !
 ! D37   D(4,6,18,31)          -92.9354         estimate D2E/DX2                !
 ! D38   D(16,6,18,31)          25.7911         estimate D2E/DX2                !
 ! D39   D(17,6,18,31)         149.3552         estimate D2E/DX2                !
 ! D40   D(3,7,19,30)         -166.1155         estimate D2E/DX2                !
 ! D41   D(20,7,19,30)         -49.2104         estimate D2E/DX2                !
 ! D42   D(21,7,19,30)          73.4066         estimate D2E/DX2                !
 ! D43   D(3,7,20,28)           12.9879         estimate D2E/DX2                !
 ! D44   D(19,7,20,28)        -100.7463         estimate D2E/DX2                !
 ! D45   D(21,7,20,28)         135.8599         estimate D2E/DX2                !
 ! D46   D(3,7,21,29)          -57.2164         estimate D2E/DX2                !
 ! D47   D(19,7,21,29)          58.1093         estimate D2E/DX2                !
 ! D48   D(20,7,21,29)        -178.1114         estimate D2E/DX2                !
 ! D49   D(2,8,13,25)          -43.843          estimate D2E/DX2                !
 ! D50   D(14,8,13,25)          76.5485         estimate D2E/DX2                !
 ! D51   D(15,8,13,25)        -166.0547         estimate D2E/DX2                !
 ! D52   D(2,8,14,27)           78.098          estimate D2E/DX2                !
 ! D53   D(13,8,14,27)         -42.1603         estimate D2E/DX2                !
 ! D54   D(15,8,14,27)        -163.5737         estimate D2E/DX2                !
 ! D55   D(2,8,15,26)          -65.1514         estimate D2E/DX2                !
 ! D56   D(13,8,15,26)          55.6545         estimate D2E/DX2                !
 ! D57   D(14,8,15,26)         178.0211         estimate D2E/DX2                !
 ! D58   D(1,9,10,23)         -104.7843         estimate D2E/DX2                !
 ! D59   D(5,9,10,23)         -105.0468         estimate D2E/DX2                !
 ! D60   D(11,9,10,23)          14.142          estimate D2E/DX2                !
 ! D61   D(12,9,10,23)         132.2528         estimate D2E/DX2                !
 ! D62   D(1,9,11,24)          -46.34           estimate D2E/DX2                !
 ! D63   D(5,9,11,24)          -71.4533         estimate D2E/DX2                !
 ! D64   D(10,9,11,24)         172.834          estimate D2E/DX2                !
 ! D65   D(12,9,11,24)          58.3835         estimate D2E/DX2                !
 ! D66   D(1,9,12,22)         -144.2162         estimate D2E/DX2                !
 ! D67   D(5,9,12,22)         -118.0988         estimate D2E/DX2                !
 ! D68   D(10,9,12,22)          -2.0993         estimate D2E/DX2                !
 ! D69   D(11,9,12,22)         114.5276         estimate D2E/DX2                !
 --------------------------------------------------------------------------------
 Trust Radius=3.00D-01 FncErr=1.00D-07 GrdErr=1.00D-06 EigMax=2.50D+02 EigMin=1.00D-04
 Number of steps in this run=    164 maximum allowed number of steps=    198.
 GradGradGradGradGradGradGradGradGradGradGradGradGradGradGradGradGradGrad

                          Input orientation:                          
 ---------------------------------------------------------------------
 Center     Atomic      Atomic             Coordinates (Angstroms)
 Number     Number       Type             X           Y           Z
 ---------------------------------------------------------------------
      1         14           0       -0.138170    0.159070   -0.886720
      2          8           0       -1.005710   -1.215570   -1.003670
      3          8           0        0.581790    0.252670    0.615010
      4          8           0       -1.133900    1.453110   -1.106270
      5          8           0        1.181340    0.192060   -1.826770
      6         14           0       -2.693390    1.743710   -0.651140
      7         14           0        0.452460    0.314040    2.262620
      8         14           0       -2.154800   -2.120400   -0.225030
      9         40           0        2.937770   -0.008980   -0.842490
     10          8           0        4.305260    0.054150   -2.198440
     11          8           0        3.043580   -1.718220    0.049790
     12          8           0        3.398850    1.477110    0.424930
     13          8           0       -3.558250   -2.004360   -1.062210
     14          8           0       -2.286870   -1.577110    1.340040
     15          8           0       -1.669150   -3.677480   -0.080450
     16          8           0       -3.005960    3.334120   -0.930770
     17          8           0       -2.920570    1.218380    0.890350
     18          8           0       -3.785110    0.842720   -1.516430
     19          8           0       -0.763350    1.451590    2.523160
     20          8           0        1.876730    0.804420    2.882570
     21          8           0        0.045960   -1.132570    2.900600
     22          1           0        4.148570    2.082480    0.404650
     23          1           0        4.989180   -0.218730   -2.812180
     24          1           0        2.763780   -2.309710    0.753730
     25          1           0       -3.792210   -1.109630   -1.366280
     26          1           0       -1.561400   -4.185680   -0.891240
     27          1           0       -2.806230   -0.756150    1.404970
     28          1           0        2.490500    1.169920    2.209970
     29          1           0       -0.788420   -1.498580    2.546840
     30          1           0       -0.841850    1.779550    3.427640
     31          1           0       -4.151960    1.261500   -2.303650
     32          1           0       -2.244280    3.909500   -1.064090
     33          1           0       -2.210870    1.445490    1.533410
 ---------------------------------------------------------------------
                    Distance matrix (angstroms):
                    1          2          3          4          5
     1  Si   0.000000
     2  O    1.629705   0.000000
     3  O    1.668022   2.701113   0.000000
     4  O    1.647489   2.673726   2.710619   0.000000
     5  O    1.620459   2.728022   2.515039   2.733076   0.000000
     6  Si   3.015913   3.424891   3.814858   1.650334   4.336272
     7  Si   3.207990   3.890323   1.653817   3.894026   4.155629
     8  Si   3.114581   1.656926   3.718340   3.819528   4.363814
     9  Zr   3.080845   4.127090   2.782698   4.334257   2.023430
    10  O    4.634187   5.589818   4.671096   5.721397   3.148973
    11  O    3.811142   4.214165   3.203793   5.370768   3.261684
    12  O    3.996019   5.356451   3.077533   4.784451   3.411577
    13  O    4.050700   2.672279   5.004716   4.222974   5.279444
    14  O    3.548196   2.695377   3.478933   4.061528   5.018678
    15  O    4.208692   2.711732   4.582191   5.259444   5.113538
    16  O    4.278680   4.970512   4.975613   2.659625   5.311199
    17  O    3.467256   3.630167   3.643478   2.689569   5.026106
    18  O    3.763520   3.496362   4.894999   2.751313   5.018495
    19  O    3.699830   4.428432   2.624471   3.648297   4.928501
    20  O    4.322481   5.243251   2.668919   5.039398   4.799629
    21  O    4.005750   4.044283   2.725789   4.912516   5.039024
    22  H    4.872708   6.279100   4.014271   5.530233   4.166219
    23  H    5.489977   6.340592   5.602940   6.572464   3.954672
    24  H    4.148164   4.300541   3.368399   5.728030   3.927079
    25  H    3.897638   2.811991   4.991317   3.701601   5.161652
    26  H    4.571920   3.023737   5.153737   5.659059   5.249995
    27  H    3.634283   3.042119   3.622214   3.739498   5.219575
    28  H    4.185835   5.314276   2.651117   4.920764   4.354926
    29  H    3.867811   3.568393   2.945559   4.709251   5.085930
    30  H    4.662062   5.351084   3.502713   4.555019   5.849978
    31  H    4.396994   4.210073   5.651965   3.252556   5.460330
    32  H    4.304984   5.272954   4.917159   2.696029   5.112330
    33  H    3.436276   3.869163   3.172574   2.850935   4.936495
                    6          7          8          9         10
     6  Si   0.000000
     7  Si   4.519992   0.000000
     8  Si   3.924665   4.348874   0.000000
     9  Zr   5.900720   3.990340   5.547398   0.000000
    10  O    7.364092   5.900226   7.096153   1.926815   0.000000
    11  O    6.737142   3.967443   5.221152   1.931026   3.128525
    12  O    6.192285   3.662110   6.648876   2.006841   3.119049
    13  O    3.868461   5.702216   1.638294   6.799125   8.207513
    14  O    3.893315   3.454205   1.661942   5.875315   7.657547
    15  O    5.546535   5.091506   1.637455   5.938208   7.355577
    16  O    1.644779   5.592789   5.565459   6.819973   8.112899
    17  O    1.644316   3.752104   3.602489   6.231316   7.944097
    18  O    1.659025   5.702431   3.620180   6.810044   8.157271
    19  O    3.726469   1.685258   4.716757   5.211445   7.066622
    20  O    5.852809   1.628912   5.870689   3.957714   5.681314
    21  O    5.328403   1.632465   3.948255   4.861660   6.749085
    22  H    6.931225   4.498962   7.602182   2.719485   3.303748
    23  H    8.218464   6.827830   7.832378   2.851659   0.958586
    24  H    6.941511   3.808282   5.018589   2.805628   4.084030
    25  H    3.140124   5.763070   2.237235   6.839475   8.222888
    26  H    6.041251   5.852345   2.249742   6.139196   7.355449
    27  H    3.238768   3.535524   2.223160   6.213121   8.013391
    28  H    5.948773   2.211088   6.191465   3.302630   4.896159
    29  H    4.936439   2.214984   3.152288   5.252710   7.132617
    30  H    4.479501   2.276012   5.502313   5.976485   7.818089
    31  H    2.256267   6.553563   4.443710   7.349380   8.543614
    32  H    2.250083   5.591667   6.088655   6.500556   7.684201
    33  H    2.256993   2.984167   3.976283   5.853963   7.636916
                   11         12         13         14         15
    11  O    0.000000
    12  O    3.236832   0.000000
    13  O    6.700939   7.920446   0.000000
    14  O    5.486197   6.518673   2.751319   0.000000
    15  O    5.105437   7.246367   2.707745   2.609775   0.000000
    16  O    7.942580   6.804998   5.368582   5.458374   7.188368
    17  O    6.700839   6.341816   3.821672   2.901476   5.145673
    18  O    7.459388   7.468642   2.891997   4.032334   5.193412
    19  O    5.536964   4.661237   5.710511   3.590809   5.822939
    20  O    3.968614   2.968056   7.279392   5.038517   6.437405
    21  O    4.178017   4.917443   5.427173   2.841665   4.278414
    22  H    3.973946   0.963828   8.845847   7.462067   8.201117
    23  H    3.771565   3.985462   8.905584   8.486874   7.984902
    24  H    0.961083   3.853755   6.584751   5.137074   4.713546
    25  H    7.007400   7.849268   0.973518   3.131893   3.571358
    26  H    5.308459   7.642223   2.962228   3.508497   0.962942
    27  H    6.081313   6.667154   2.865404   0.973615   3.468947
    28  H    3.648784   2.026286   7.574338   5.579087   6.785720
    29  H    4.579053   5.557919   4.577446   1.925587   3.525045
    30  H    6.224213   5.204928   6.469587   4.208720   6.539900
    31  H    8.135921   8.031586   3.543939   4.981239   5.958229
    32  H    7.802142   6.322865   6.058074   5.990371   7.672065
    33  H    6.310264   5.718277   4.522625   3.029732   5.398410
                   16         17         18         19         20
    16  O    0.000000
    17  O    2.792870   0.000000
    18  O    2.675284   2.584790   0.000000
    19  O    4.528007   2.715521   5.081343   0.000000
    20  O    6.691906   5.210987   7.170014   2.741902   0.000000
    21  O    6.629097   4.285834   6.171630   2.734104   2.665328
    22  H    7.384934   7.138299   8.256563   5.386378   3.596496
    23  H    8.949006   8.850885   8.932738   8.021685   6.569959
    24  H    8.245014   6.691631   7.614421   5.451505   3.875129
    25  H    4.533737   3.357345   1.958128   5.555320   7.338474
    26  H    7.657396   5.850237   5.533584   6.638812   7.138871
    27  H    4.714433   2.043692   3.471191   3.209022   5.152552
    28  H    6.690223   5.569867   7.305915   3.281001   0.981170
    29  H    6.353443   3.830391   5.565249   2.950372   3.538297
    30  H    5.108405   3.327736   5.829602   0.965300   2.939159
    31  H    2.737493   3.423422   0.964194   5.900585   7.965608
    32  H    0.963843   3.394014   3.461778   4.593783   6.496181
    33  H    3.204883   0.984266   3.484693   1.753555   4.351974
                   21         22         23         24         25
    21  O    0.000000
    22  H    5.779076   0.000000
    23  H    7.609624   4.043537   0.000000
    24  H    3.658040   4.618531   4.694712   0.000000
    25  H    5.739193   8.739665   8.944112   6.993972   0.000000
    26  H    5.126708   8.577466   7.895366   4.993233   3.829394
    27  H    3.242466   7.578107   8.879279   5.819164   2.962589
    28  H    3.428441   2.615558   5.778732   3.781949   7.580129
    29  H    0.977394   6.464274   7.983594   4.060948   4.948388
    30  H    3.089728   5.842476   8.770940   6.072266   6.327215
    31  H    7.101994   8.769703   9.274164   8.362331   2.574945
    32  H    6.810759   6.809092   8.510056   8.189243   5.261090
    33  H    3.689022   6.490172   8.572893   6.281447   4.175820
                   26         27         28         29         30
    26  H    0.000000
    27  H    4.310900   0.000000
    28  H    7.397151   5.693252   0.000000
    29  H    4.431523   2.434466   4.240954   0.000000
    30  H    7.399625   3.792065   3.599851   3.394820   0.000000
    31  H    6.194972   4.431226   8.031403   6.516034   6.638742
    32  H    8.125770   5.308515   6.375179   6.663758   5.165185
    33  H    6.165291   2.284331   4.757789   3.423150   2.360915
                   31         32         33
    31  H    0.000000
    32  H    3.491082   0.000000
    33  H    4.304034   3.580428   0.000000
 Stoichiometry    H12O16Si4Zr
 Framework group  C1[X(H12O16Si4Zr)]
 Deg. of freedom    93
 Full point group                 C1      NOp   1
 Largest Abelian subgroup         C1      NOp   1
 Largest concise Abelian subgroup C1      NOp   1
                         Standard orientation:                         
 ---------------------------------------------------------------------
 Center     Atomic      Atomic             Coordinates (Angstroms)
 Number     Number       Type             X           Y           Z
 ---------------------------------------------------------------------
      1         14           0        0.133045   -0.167783   -0.856259
      2          8           0        0.999616    1.203291   -1.014845
      3          8           0       -0.545154   -0.240560    0.665925
      4          8           0        1.119842   -1.466765   -1.086690
      5          8           0       -1.212096   -0.209810   -1.758877
      6         14           0        2.690803   -1.755039   -0.671263
      7         14           0       -0.370284   -0.281160    2.309970
      8         14           0        2.171580    2.115405   -0.280031
      9         40           0       -2.940159    0.007752   -0.728958
     10          8           0       -4.344856   -0.069619   -2.045566
     11          8           0       -3.017930    1.728490    0.143895
     12          8           0       -3.368724   -1.460976    0.569727
     13          8           0        3.551043    1.985512   -1.154227
     14          8           0        2.345985    1.591865    1.287623
     15          8           0        1.693086    3.675296   -0.142048
     16          8           0        2.992474   -3.349594   -0.939008
     17          8           0        2.961656   -1.210566    0.856468
     18          8           0        3.759808   -0.867645   -1.577972
     19          8           0        0.850123   -1.418026    2.551296
     20          8           0       -1.777737   -0.760365    2.975399
     21          8           0        0.056504    1.172565    2.917816
     22          1           0       -4.119866   -2.064864    0.578006
     23          1           0       -5.045020    0.196936   -2.643568
     24          1           0       -2.717586    2.328296    0.832159
     25          1           0        3.774778    1.086444   -1.453153
     26          1           0        1.563850    4.173335   -0.955997
     27          1           0        2.865386    0.770633    1.348668
     28          1           0       -2.410622   -1.133047    2.324816
     29          1           0        0.881443    1.532142    2.536397
     30          1           0        0.953061   -1.734576    3.457389
     31          1           0        4.103882   -1.297277   -2.369616
     32          1           0        2.226298   -3.924912   -1.043770
     33          1           0        2.269638   -1.427838    1.521812
 ---------------------------------------------------------------------
 Rotational constants (GHZ):           0.2596225           0.1343225           0.1318280
 General basis read from cards:  (5D, 7F)
 ======================================================================================================
                                       Pseudopotential Parameters
 ======================================================================================================
  Center     Atomic      Valence      Angular      Power
  Number     Number     Electrons     Momentum     of R      Exponent        Coefficient   SO-Coeffient
 ======================================================================================================
    1         14
                                   No pseudopotential on this center.
    2          8
                                   No pseudopotential on this center.
    3          8
                                   No pseudopotential on this center.
    4          8
                                   No pseudopotential on this center.
    5          8
                                   No pseudopotential on this center.
    6         14
                                   No pseudopotential on this center.
    7         14
                                   No pseudopotential on this center.
    8         14
                                   No pseudopotential on this center.
    9         40           12
                                      G and up 
                                                     2        1.0000000        0.00000000    0.00000000
                                      S - G
                                                     2        8.6365280      150.24299400    0.00000000
                                                     2        3.7176390       18.78003600    0.00000000
                                      P - G
                                                     2        7.6267280       33.19279100    0.00000000
                                                     2        7.4532070       66.38903900    0.00000000
                                                     2        3.3583890        4.62072600    0.00000000
                                                     2        3.2297380        9.26027000    0.00000000
                                      D - G
                                                     2        5.9380860       13.99338300    0.00000000
                                                     2        5.8255440       20.99588200    0.00000000
                                                     2        2.2050190        2.28516600    0.00000000
                                                     2        2.2062920        3.44126000    0.00000000
                                      F - G
                                                     2        4.8002150       -5.23932000    0.00000000
                                                     2        4.7989920       -6.98742400    0.00000000
   10          8
                                   No pseudopotential on this center.
   11          8
                                   No pseudopotential on this center.
   12          8
                                   No pseudopotential on this center.
   13          8
                                   No pseudopotential on this center.
   14          8
                                   No pseudopotential on this center.
   15          8
                                   No pseudopotential on this center.
   16          8
                                   No pseudopotential on this center.
   17          8
                                   No pseudopotential on this center.
   18          8
                                   No pseudopotential on this center.
   19          8
                                   No pseudopotential on this center.
   20          8
                                   No pseudopotential on this center.
   21          8
                                   No pseudopotential on this center.
   22          1
                                   No pseudopotential on this center.
   23          1
                                   No pseudopotential on this center.
   24          1
                                   No pseudopotential on this center.
   25          1
                                   No pseudopotential on this center.
   26          1
                                   No pseudopotential on this center.
   27          1
                                   No pseudopotential on this center.
   28          1
                                   No pseudopotential on this center.
   29          1
                                   No pseudopotential on this center.
   30          1
                                   No pseudopotential on this center.
   31          1
                                   No pseudopotential on this center.
   32          1
                                   No pseudopotential on this center.
   33          1
                                   No pseudopotential on this center.
 ======================================================================================================
 There are   570 symmetry adapted cartesian basis functions of A   symmetry.
 There are   524 symmetry adapted basis functions of A   symmetry.
   524 basis functions,  1074 primitive gaussians,   570 cartesian basis functions
   104 alpha electrons      104 beta electrons
       nuclear repulsion energy      3020.8338777118 Hartrees.
 NAtoms=   33 NActive=   33 NUniq=   33 SFac= 1.00D+00 NAtFMM=   60 NAOKFM=F Big=F
 Integral buffers will be    131072 words long.
 Raffenetti 2 integral format.
 Two-electron integral symmetry is turned on.
 Nuclear repulsion after empirical dispersion term =     3020.7873517392 Hartrees.
 One-electron integrals computed using PRISM.
 PrsmSu:  requested number of processors reduced to:   4 ShMem   1 Linda.
   1 Symmetry operations used in ECPInt.
 ECPInt:  NShTT=   13203 NPrTT=   78401 LenC2=   11888 LenP2D=   44968.
 LDataN:  DoStor=T MaxTD1= 8 Len=  415
 Number of processors reduced to  13 by ecpmxn.
 NBasis=   524 RedAO= T EigKep=  2.50D-05  NBF=   524
 NBsUse=   524 1.00D-06 EigRej= -1.00D+00 NBFU=   524
 Defaulting to unpruned grid for atomic number  40.
 ExpMin= 1.01D-02 ExpMax= 1.61D+04 ExpMxC= 2.43D+03 IAcc=3 IRadAn=         5 AccDes= 0.00D+00
 Harris functional with IExCor=  402 and IRadAn=       5 diagonalized for initial guess.
 HarFok:  IExCor=  402 AccDes= 0.00D+00 IRadAn=         5 IDoV= 1 UseB2=F ITyADJ=14
 ICtDFT=  3500011 ScaDFX=  1.000000  1.000000  1.000000  1.000000
 Defaulting to unpruned grid for atomic number  40.
 FoFCou: FMM=F IPFlag=           0 FMFlag=      100000 FMFlg1=           0
         NFxFlg=           0 DoJE=T BraDBF=F KetDBF=T FulRan=T
         wScrn=  0.000000 ICntrl=       500 IOpCl=  0 I1Cent=   200000004 NGrid=           0
         NMat0=    1 NMatS0=      1 NMatT0=    0 NMatD0=    1 NMtDS0=    0 NMtDT0=    0
 Petite list used in FoFCou.
 Requested convergence on RMS density matrix=1.00D-08 within 128 cycles.
 Requested convergence on MAX density matrix=1.00D-06.
 Requested convergence on             energy=1.00D-06.
 No special actions if energy rises.
 Defaulting to unpruned grid for atomic number  40.
 Defaulting to unpruned grid for atomic number  40.
 Defaulting to unpruned grid for atomic number  40.
 Defaulting to unpruned grid for atomic number  40.
 Defaulting to unpruned grid for atomic number  40.
 Defaulting to unpruned grid for atomic number  40.
 Defaulting to unpruned grid for atomic number  40.
 Defaulting to unpruned grid for atomic number  40.
 Defaulting to unpruned grid for atomic number  40.
 Defaulting to unpruned grid for atomic number  40.
 Defaulting to unpruned grid for atomic number  40.
 Defaulting to unpruned grid for atomic number  40.
 Defaulting to unpruned grid for atomic number  40.
 Defaulting to unpruned grid for atomic number  40.
 Defaulting to unpruned grid for atomic number  40.
 Defaulting to unpruned grid for atomic number  40.
 SCF Done:  E(RB3LYP) =  -2416.94284788     A.U. after   14 cycles
            NFock= 14  Conv=0.26D-08     -V/T= 2.0185

 **********************************************************************

            Population analysis using the SCF Density.

 **********************************************************************

 Orbital symmetries:
       Occupied  (A) (A) (A) (A) (A) (A) (A) (A) (A) (A) (A) (A)
                 (A) (A) (A) (A) (A) (A) (A) (A) (A) (A) (A) (A)
                 (A) (A) (A) (A) (A) (A) (A) (A) (A) (A) (A) (A)
                 (A) (A) (A) (A) (A) (A) (A) (A) (A) (A) (A) (A)
                 (A) (A) (A) (A) (A) (A) (A) (A) (A) (A) (A) (A)
                 (A) (A) (A) (A) (A) (A) (A) (A) (A) (A) (A) (A)
                 (A) (A) (A) (A) (A) (A) (A) (A) (A) (A) (A) (A)
                 (A) (A) (A) (A) (A) (A) (A) (A) (A) (A) (A) (A)
                 (A) (A) (A) (A) (A) (A) (A) (A)
       Virtual   (A) (A) (A) (A) (A) (A) (A) (A) (A) (A) (A) (A)
                 (A) (A) (A) (A) (A) (A) (A) (A) (A) (A) (A) (A)
                 (A) (A) (A) (A) (A) (A) (A) (A) (A) (A) (A) (A)
                 (A) (A) (A) (A) (A) (A) (A) (A) (A) (A) (A) (A)
                 (A) (A) (A) (A) (A) (A) (A) (A) (A) (A) (A) (A)
                 (A) (A) (A) (A) (A) (A) (A) (A) (A) (A) (A) (A)
                 (A) (A) (A) (A) (A) (A) (A) (A) (A) (A) (A) (A)
                 (A) (A) (A) (A) (A) (A) (A) (A) (A) (A) (A) (A)
                 (A) (A) (A) (A) (A) (A) (A) (A) (A) (A) (A) (A)
                 (A) (A) (A) (A) (A) (A) (A) (A) (A) (A) (A) (A)
                 (A) (A) (A) (A) (A) (A) (A) (A) (A) (A) (A) (A)
                 (A) (A) (A) (A) (A) (A) (A) (A) (A) (A) (A) (A)
                 (A) (A) (A) (A) (A) (A) (A) (A) (A) (A) (A) (A)
                 (A) (A) (A) (A) (A) (A) (A) (A) (A) (A) (A) (A)
                 (A) (A) (A) (A) (A) (A) (A) (A) (A) (A) (A) (A)
                 (A) (A) (A) (A) (A) (A) (A) (A) (A) (A) (A) (A)
                 (A) (A) (A) (A) (A) (A) (A) (A) (A) (A) (A) (A)
                 (A) (A) (A) (A) (A) (A) (A) (A) (A) (A) (A) (A)
                 (A) (A) (A) (A) (A) (A) (A) (A) (A) (A) (A) (A)
                 (A) (A) (A) (A) (A) (A) (A) (A) (A) (A) (A) (A)
                 (A) (A) (A) (A) (A) (A) (A) (A) (A) (A) (A) (A)
                 (A) (A) (A) (A) (A) (A) (A) (A) (A) (A) (A) (A)
                 (A) (A) (A) (A) (A) (A) (A) (A) (A) (A) (A) (A)
                 (A) (A) (A) (A) (A) (A) (A) (A) (A) (A) (A) (A)
                 (A) (A) (A) (A) (A) (A) (A) (A) (A) (A) (A) (A)
                 (A) (A) (A) (A) (A) (A) (A) (A) (A) (A) (A) (A)
                 (A) (A) (A) (A) (A) (A) (A) (A) (A) (A) (A) (A)
                 (A) (A) (A) (A) (A) (A) (A) (A) (A) (A) (A) (A)
                 (A) (A) (A) (A) (A) (A) (A) (A) (A) (A) (A) (A)
                 (A) (A) (A) (A) (A) (A) (A) (A) (A) (A) (A) (A)
                 (A) (A) (A) (A) (A) (A) (A) (A) (A) (A) (A) (A)
                 (A) (A) (A) (A) (A) (A) (A) (A) (A) (A) (A) (A)
                 (A) (A) (A) (A) (A) (A) (A) (A) (A) (A) (A) (A)
                 (A) (A) (A) (A) (A) (A) (A) (A) (A) (A) (A) (A)
                 (A) (A) (A) (A) (A) (A) (A) (A) (A) (A) (A) (A)
 The electronic state is 1-A.
 Alpha  occ. eigenvalues --  -66.23507 -66.23093 -66.22356 -66.21795 -19.18886
 Alpha  occ. eigenvalues --  -19.18858 -19.18081 -19.17179 -19.17177 -19.17175
 Alpha  occ. eigenvalues --  -19.16650 -19.16376 -19.16058 -19.15810 -19.15787
 Alpha  occ. eigenvalues --  -19.15653 -19.15237 -19.15062 -19.15052 -19.14326
 Alpha  occ. eigenvalues --   -5.37570  -5.36978  -5.36407  -5.35845  -3.73565
 Alpha  occ. eigenvalues --   -3.73534  -3.73462  -3.73025  -3.72958  -3.72850
 Alpha  occ. eigenvalues --   -3.72465  -3.72371  -3.72240  -3.71846  -3.71787
 Alpha  occ. eigenvalues --   -3.71758  -2.12494  -1.28863  -1.28532  -1.28131
 Alpha  occ. eigenvalues --   -1.06638  -1.05410  -1.04480  -1.03278  -1.02858
 Alpha  occ. eigenvalues --   -1.02362  -1.01557  -1.01019  -1.00286  -1.00220
 Alpha  occ. eigenvalues --   -0.99833  -0.99403  -0.97709  -0.96900  -0.96200
 Alpha  occ. eigenvalues --   -0.95342  -0.62696  -0.61093  -0.60076  -0.57027
 Alpha  occ. eigenvalues --   -0.55884  -0.55342  -0.53542  -0.53152  -0.52490
 Alpha  occ. eigenvalues --   -0.52278  -0.51191  -0.50464  -0.50345  -0.50082
 Alpha  occ. eigenvalues --   -0.49221  -0.45874  -0.44083  -0.43740  -0.42916
 Alpha  occ. eigenvalues --   -0.42485  -0.42189  -0.41535  -0.40755  -0.40172
 Alpha  occ. eigenvalues --   -0.39089  -0.38887  -0.38376  -0.37724  -0.37423
 Alpha  occ. eigenvalues --   -0.37148  -0.36936  -0.36641  -0.36232  -0.35898
 Alpha  occ. eigenvalues --   -0.35684  -0.35580  -0.35112  -0.35007  -0.34505
 Alpha  occ. eigenvalues --   -0.34186  -0.33886  -0.33385  -0.33100  -0.32818
 Alpha  occ. eigenvalues --   -0.32683  -0.32315  -0.32287  -0.31791
 Alpha virt. eigenvalues --   -0.04112  -0.02814  -0.02206  -0.01859  -0.01538
 Alpha virt. eigenvalues --   -0.01259  -0.00494   0.00173   0.00613   0.01206
 Alpha virt. eigenvalues --    0.01370   0.01548   0.02363   0.02466   0.02684
 Alpha virt. eigenvalues --    0.03167   0.03307   0.03389   0.03737   0.03917
 Alpha virt. eigenvalues --    0.04116   0.04506   0.04911   0.05690   0.06274
 Alpha virt. eigenvalues --    0.06564   0.07133   0.07416   0.08011   0.08425
 Alpha virt. eigenvalues --    0.08673   0.08880   0.09166   0.09560   0.09807
 Alpha virt. eigenvalues --    0.10282   0.10457   0.10765   0.11049   0.11336
 Alpha virt. eigenvalues --    0.11609   0.12008   0.12353   0.12703   0.12932
 Alpha virt. eigenvalues --    0.13396   0.13931   0.14205   0.14382   0.14877
 Alpha virt. eigenvalues --    0.15011   0.15489   0.15802   0.16128   0.16444
 Alpha virt. eigenvalues --    0.16833   0.17274   0.17573   0.17732   0.18331
 Alpha virt. eigenvalues --    0.18351   0.18802   0.19035   0.19696   0.19945
 Alpha virt. eigenvalues --    0.20365   0.20626   0.21324   0.21470   0.22030
 Alpha virt. eigenvalues --    0.22242   0.22553   0.22932   0.23038   0.23444
 Alpha virt. eigenvalues --    0.23982   0.24152   0.24275   0.24633   0.24891
 Alpha virt. eigenvalues --    0.25262   0.25520   0.25709   0.26078   0.26688
 Alpha virt. eigenvalues --    0.26852   0.27075   0.27448   0.27700   0.28072
 Alpha virt. eigenvalues --    0.28347   0.28571   0.28580   0.28875   0.29459
 Alpha virt. eigenvalues --    0.29569   0.29720   0.30376   0.30622   0.30995
 Alpha virt. eigenvalues --    0.31147   0.31443   0.31661   0.32144   0.32354
 Alpha virt. eigenvalues --    0.32609   0.33386   0.33574   0.34032   0.34666
 Alpha virt. eigenvalues --    0.34785   0.35094   0.35628   0.36431   0.36926
 Alpha virt. eigenvalues --    0.37149   0.37225   0.37756   0.38614   0.38861
 Alpha virt. eigenvalues --    0.39216   0.39934   0.40761   0.41372   0.41833
 Alpha virt. eigenvalues --    0.42219   0.42373   0.42994   0.43796   0.43915
 Alpha virt. eigenvalues --    0.44883   0.45267   0.45502   0.46150   0.46641
 Alpha virt. eigenvalues --    0.46829   0.47641   0.49079   0.49792   0.50205
 Alpha virt. eigenvalues --    0.50597   0.51673   0.52189   0.52898   0.54366
 Alpha virt. eigenvalues --    0.54636   0.55207   0.55770   0.56703   0.57130
 Alpha virt. eigenvalues --    0.57636   0.58117   0.60583   0.60927   0.61259
 Alpha virt. eigenvalues --    0.61947   0.63227   0.63743   0.63975   0.64523
 Alpha virt. eigenvalues --    0.66291   0.66631   0.67524   0.68264   0.69406
 Alpha virt. eigenvalues --    0.70193   0.71111   0.71707   0.71924   0.73474
 Alpha virt. eigenvalues --    0.73904   0.74466   0.75393   0.77208   0.77668
 Alpha virt. eigenvalues --    0.79996   0.81027   0.81944   0.82842   0.83895
 Alpha virt. eigenvalues --    0.85066   0.85952   0.88237   0.89204   0.93525
 Alpha virt. eigenvalues --    0.94235   0.95233   0.95651   0.96645   0.97354
 Alpha virt. eigenvalues --    0.97757   0.99198   1.00109   1.00558   1.02008
 Alpha virt. eigenvalues --    1.02363   1.04263   1.05110   1.05920   1.06370
 Alpha virt. eigenvalues --    1.07620   1.08646   1.08846   1.09839   1.11316
 Alpha virt. eigenvalues --    1.12409   1.13702   1.14613   1.15198   1.15986
 Alpha virt. eigenvalues --    1.18535   1.19450   1.20821   1.21119   1.21508
 Alpha virt. eigenvalues --    1.22472   1.22750   1.23137   1.23472   1.24128
 Alpha virt. eigenvalues --    1.24346   1.25224   1.25602   1.26251   1.26652
 Alpha virt. eigenvalues --    1.26785   1.26946   1.27712   1.28654   1.29242
 Alpha virt. eigenvalues --    1.29474   1.30162   1.30510   1.31086   1.31359
 Alpha virt. eigenvalues --    1.31650   1.32241   1.33051   1.33893   1.34352
 Alpha virt. eigenvalues --    1.34773   1.35288   1.36173   1.36573   1.37398
 Alpha virt. eigenvalues --    1.38184   1.38362   1.39412   1.40031   1.40891
 Alpha virt. eigenvalues --    1.42503   1.43125   1.44537   1.44813   1.46246
 Alpha virt. eigenvalues --    1.47250   1.48591   1.50293   1.52257   1.52649
 Alpha virt. eigenvalues --    1.55834   1.56251   1.58116   1.59150   1.59255
 Alpha virt. eigenvalues --    1.59866   1.60735   1.61790   1.62606   1.63291
 Alpha virt. eigenvalues --    1.64146   1.65886   1.66088   1.66617   1.67048
 Alpha virt. eigenvalues --    1.67927   1.68681   1.69286   1.70041   1.70512
 Alpha virt. eigenvalues --    1.71179   1.71503   1.72530   1.73272   1.73411
 Alpha virt. eigenvalues --    1.73858   1.74821   1.74983   1.75668   1.76337
 Alpha virt. eigenvalues --    1.77701   1.77857   1.78241   1.78539   1.79120
 Alpha virt. eigenvalues --    1.80393   1.80704   1.81150   1.82073   1.82791
 Alpha virt. eigenvalues --    1.83837   1.84552   1.85315   1.86327   1.87022
 Alpha virt. eigenvalues --    1.87409   1.88272   1.89461   1.90525   1.91264
 Alpha virt. eigenvalues --    1.91894   1.92022   1.93785   1.95053   1.95276
 Alpha virt. eigenvalues --    1.96351   1.97333   1.97923   1.98368   1.99464
 Alpha virt. eigenvalues --    2.00882   2.01766   2.02564   2.03502   2.04307
 Alpha virt. eigenvalues --    2.04585   2.04793   2.06647   2.08106   2.08487
 Alpha virt. eigenvalues --    2.09182   2.11906   2.13259   2.13732   2.14864
 Alpha virt. eigenvalues --    2.17144   2.17910   2.18943   2.22749   2.23075
 Alpha virt. eigenvalues --    2.26808   2.29744   2.32606   2.37393   2.38312
 Alpha virt. eigenvalues --    2.38625   2.39820   2.40118   2.41298   2.42444
 Alpha virt. eigenvalues --    2.43588   2.44190   2.46541   2.47234   2.48462
 Alpha virt. eigenvalues --    2.49406   2.49606   2.50717   2.51948   2.54810
 Alpha virt. eigenvalues --    2.55547   2.57456   2.59223   2.59642   2.60097
 Alpha virt. eigenvalues --    2.60653   2.61005   2.61156   2.62250   2.63210
 Alpha virt. eigenvalues --    2.63707   2.64674   2.65386   2.65914   2.66189
 Alpha virt. eigenvalues --    2.66993   2.67956   2.70535   2.71401   2.72013
 Alpha virt. eigenvalues --    2.72608   2.72890   2.74231   2.75541   2.76274
 Alpha virt. eigenvalues --    2.77165   2.77462   2.77953   2.78455   2.80985
 Alpha virt. eigenvalues --    2.82181   2.83891   2.84165   2.85182   2.86499
 Alpha virt. eigenvalues --    2.86741   2.88153   2.89436   2.93186   2.96088
 Alpha virt. eigenvalues --    2.99731   3.04501   3.17986   3.27271   3.46357
 Alpha virt. eigenvalues --    3.48102   3.48972   3.50040   3.51078   3.56505
 Alpha virt. eigenvalues --    3.59548   3.60471   3.61297   3.63949   3.72199
 Alpha virt. eigenvalues --    3.73708   4.00765   4.12792   6.35222  30.86604
          Condensed to atoms (all electrons):
               1          2          3          4          5          6
     1  Si  23.453186  -1.126473  -2.460356  -1.542422  -3.769302  -0.158627
     2  O   -1.126473  10.032677   0.471980  -0.106040   0.217213  -0.121628
     3  O   -2.460356   0.471980  10.981299   0.393788   0.995025   0.053110
     4  O   -1.542422  -0.106040   0.393788   9.790755   0.543212  -0.587944
     5  O   -3.769302   0.217213   0.995025   0.543212  10.431277  -0.013273
     6  Si  -0.158627  -0.121628   0.053110  -0.587944  -0.013273  13.663792
     7  Si  -1.587559  -0.172576  -1.735314  -0.002972   0.292303   0.043115
     8  Si  -0.187865  -0.572352  -0.128406   0.046646   0.040994  -0.210161
     9  Zr  -1.145712   0.061910  -0.447802  -0.010585   0.212309   0.014153
    10  O   -0.024103   0.001124   0.008737   0.000998  -0.022297  -0.000885
    11  O    0.068818  -0.003676  -0.057292  -0.001848  -0.039169  -0.000314
    12  O    0.039554   0.003701  -0.023246  -0.009191  -0.023932  -0.001870
    13  O   -0.020176   0.239053   0.001342  -0.006089  -0.002604   0.064795
    14  O   -0.045263   0.386028   0.116063  -0.020342  -0.012346   0.011910
    15  O    0.011315   0.089754   0.006050   0.002176  -0.004650  -0.011347
    16  O    0.063465   0.015049  -0.006915   0.273748  -0.013935  -0.520120
    17  O   -0.077088  -0.033818   0.035769   0.258591   0.019957  -0.363722
    18  O   -0.084456  -0.005777  -0.011485   0.179997   0.006062  -0.305430
    19  O    0.151411  -0.008518   0.497659   0.017235  -0.009766  -0.007178
    20  O    0.208461  -0.005802   0.412702  -0.005008  -0.030347   0.001313
    21  O   -0.014775   0.046201   0.223225  -0.006897  -0.006073   0.000182
    22  H    0.000245  -0.000004   0.003581   0.000133   0.000162  -0.000162
    23  H   -0.001256   0.000001  -0.000104   0.000002  -0.000214   0.000015
    24  H   -0.009936   0.000419   0.002735   0.000021   0.000170   0.000004
    25  H   -0.000895  -0.005913  -0.000119   0.002925   0.000013   0.005091
    26  H   -0.008877  -0.015590   0.000378  -0.000088   0.000159  -0.000106
    27  H    0.012767  -0.032877  -0.014185  -0.004832  -0.000194   0.005976
    28  H   -0.007088  -0.000131   0.001520   0.000342   0.001062  -0.000440
    29  H   -0.002869  -0.006714  -0.026861   0.000856  -0.000205  -0.000492
    30  H   -0.002530  -0.000090  -0.009537  -0.000211   0.000159   0.000159
    31  H   -0.000831  -0.002581   0.000044  -0.023070   0.000096   0.078716
    32  H    0.000701  -0.000177   0.000371   0.001718   0.000186   0.030432
    33  H   -0.017168   0.001261  -0.005493  -0.012110  -0.000333   0.052031
               7          8          9         10         11         12
     1  Si  -1.587559  -0.187865  -1.145712  -0.024103   0.068818   0.039554
     2  O   -0.172576  -0.572352   0.061910   0.001124  -0.003676   0.003701
     3  O   -1.735314  -0.128406  -0.447802   0.008737  -0.057292  -0.023246
     4  O   -0.002972   0.046646  -0.010585   0.000998  -0.001848  -0.009191
     5  O    0.292303   0.040994   0.212309  -0.022297  -0.039169  -0.023932
     6  Si   0.043115  -0.210161   0.014153  -0.000885  -0.000314  -0.001870
     7  Si  16.256339   0.172183   0.266749   0.003020  -0.027117  -0.016182
     8  Si   0.172183  12.901783   0.075477  -0.000777   0.001716   0.001763
     9  Zr   0.266749   0.075477  11.786754  -0.083099   0.144175   0.107334
    10  O    0.003020  -0.000777  -0.083099   8.762631  -0.042850  -0.039520
    11  O   -0.027117   0.001716   0.144175  -0.042850   8.376812  -0.022451
    12  O   -0.016182   0.001763   0.107334  -0.039520  -0.022451   8.510188
    13  O    0.010517  -0.166028  -0.007083  -0.000001  -0.000060  -0.000005
    14  O   -0.138851  -0.496720  -0.029788  -0.000006   0.000146   0.000025
    15  O   -0.015918  -0.089054  -0.011034  -0.000005   0.000188   0.000013
    16  O   -0.003417  -0.014907  -0.013757  -0.000000   0.000007   0.000046
    17  O   -0.069057   0.118381  -0.013381  -0.000013  -0.000084   0.000005
    18  O   -0.004306   0.112503  -0.003687   0.000001  -0.000015  -0.000014
    19  O   -0.734466  -0.031019  -0.064604  -0.000048   0.000110  -0.002759
    20  O   -0.788317   0.005545  -0.068500  -0.000570   0.001455  -0.004852
    21  O   -0.166401  -0.042207  -0.009545  -0.000010   0.005185   0.001318
    22  H   -0.000416   0.000033  -0.028167  -0.002021   0.000273   0.268333
    23  H   -0.000198   0.000035  -0.080821   0.343187  -0.000249  -0.000164
    24  H    0.001813  -0.000924  -0.057449   0.000485   0.315981  -0.002071
    25  H   -0.000820   0.042750  -0.000410  -0.000000   0.000000   0.000000
    26  H    0.000686   0.062494   0.000105   0.000000   0.000045   0.000000
    27  H    0.016321   0.089314   0.002613   0.000000  -0.000005  -0.000001
    28  H    0.019089  -0.000314   0.002398   0.000360  -0.000685   0.029538
    29  H    0.068411   0.023004  -0.001351  -0.000000  -0.000071   0.000001
    30  H    0.053428   0.000193   0.002250  -0.000000   0.000002   0.000067
    31  H    0.000456  -0.003660   0.000123  -0.000000   0.000000   0.000000
    32  H   -0.000474   0.000087   0.000948   0.000000  -0.000000  -0.000002
    33  H    0.021843  -0.003240  -0.000077   0.000000   0.000004   0.000009
              13         14         15         16         17         18
     1  Si  -0.020176  -0.045263   0.011315   0.063465  -0.077088  -0.084456
     2  O    0.239053   0.386028   0.089754   0.015049  -0.033818  -0.005777
     3  O    0.001342   0.116063   0.006050  -0.006915   0.035769  -0.011485
     4  O   -0.006089  -0.020342   0.002176   0.273748   0.258591   0.179997
     5  O   -0.002604  -0.012346  -0.004650  -0.013935   0.019957   0.006062
     6  Si   0.064795   0.011910  -0.011347  -0.520120  -0.363722  -0.305430
     7  Si   0.010517  -0.138851  -0.015918  -0.003417  -0.069057  -0.004306
     8  Si  -0.166028  -0.496720  -0.089054  -0.014907   0.118381   0.112503
     9  Zr  -0.007083  -0.029788  -0.011034  -0.013757  -0.013381  -0.003687
    10  O   -0.000001  -0.000006  -0.000005  -0.000000  -0.000013   0.000001
    11  O   -0.000060   0.000146   0.000188   0.000007  -0.000084  -0.000015
    12  O   -0.000005   0.000025   0.000013   0.000046   0.000005  -0.000014
    13  O    8.630331   0.009284  -0.078786   0.003343  -0.024618  -0.044353
    14  O    0.009284   8.986647   0.086666   0.006171  -0.059761  -0.026740
    15  O   -0.078786   0.086666   8.616415  -0.000219   0.003528   0.002105
    16  O    0.003343   0.006171  -0.000219   8.947580  -0.122354  -0.074198
    17  O   -0.024618  -0.059761   0.003528  -0.122354   8.998720   0.170872
    18  O   -0.044353  -0.026740   0.002105  -0.074198   0.170872   8.898367
    19  O    0.000385   0.019652   0.000623  -0.001733  -0.015510  -0.000628
    20  O   -0.000025  -0.003487   0.000313   0.000002   0.001755   0.000041
    21  O   -0.001082   0.044104   0.005080  -0.000075  -0.010335  -0.000055
    22  H   -0.000000  -0.000000   0.000000  -0.000000   0.000000  -0.000000
    23  H   -0.000000  -0.000000   0.000000   0.000000   0.000000   0.000000
    24  H    0.000002  -0.000015   0.000013   0.000000   0.000002   0.000000
    25  H    0.227684  -0.008541   0.006817   0.000171   0.000356   0.010843
    26  H   -0.007368   0.003529   0.232669   0.000000  -0.000012   0.000010
    27  H   -0.002454   0.187870   0.001596  -0.000165   0.012907   0.000978
    28  H    0.000000  -0.000005  -0.000002  -0.000003  -0.000009   0.000000
    29  H    0.000563   0.002529   0.000133  -0.000010  -0.000261   0.000025
    30  H   -0.000002  -0.000441   0.000000  -0.000070   0.000398  -0.000006
    31  H    0.002130  -0.000080  -0.000012  -0.001422   0.001833   0.215276
    32  H   -0.000002  -0.000013   0.000000   0.231261  -0.002936   0.004470
    33  H    0.000662   0.000385  -0.000153   0.000196   0.212782   0.003252
              19         20         21         22         23         24
     1  Si   0.151411   0.208461  -0.014775   0.000245  -0.001256  -0.009936
     2  O   -0.008518  -0.005802   0.046201  -0.000004   0.000001   0.000419
     3  O    0.497659   0.412702   0.223225   0.003581  -0.000104   0.002735
     4  O    0.017235  -0.005008  -0.006897   0.000133   0.000002   0.000021
     5  O   -0.009766  -0.030347  -0.006073   0.000162  -0.000214   0.000170
     6  Si  -0.007178   0.001313   0.000182  -0.000162   0.000015   0.000004
     7  Si  -0.734466  -0.788317  -0.166401  -0.000416  -0.000198   0.001813
     8  Si  -0.031019   0.005545  -0.042207   0.000033   0.000035  -0.000924
     9  Zr  -0.064604  -0.068500  -0.009545  -0.028167  -0.080821  -0.057449
    10  O   -0.000048  -0.000570  -0.000010  -0.002021   0.343187   0.000485
    11  O    0.000110   0.001455   0.005185   0.000273  -0.000249   0.315981
    12  O   -0.002759  -0.004852   0.001318   0.268333  -0.000164  -0.002071
    13  O    0.000385  -0.000025  -0.001082  -0.000000  -0.000000   0.000002
    14  O    0.019652  -0.003487   0.044104  -0.000000  -0.000000  -0.000015
    15  O    0.000623   0.000313   0.005080   0.000000   0.000000   0.000013
    16  O   -0.001733   0.000002  -0.000075  -0.000000   0.000000   0.000000
    17  O   -0.015510   0.001755  -0.010335   0.000000   0.000000   0.000002
    18  O   -0.000628   0.000041  -0.000055  -0.000000   0.000000   0.000000
    19  O    9.038627   0.046943  -0.063091   0.000047  -0.000000   0.000056
    20  O    0.046943   8.718918   0.084270   0.002539  -0.000004  -0.000484
    21  O   -0.063091   0.084270   8.579553  -0.000001  -0.000000  -0.000747
    22  H    0.000047   0.002539  -0.000001   0.359659   0.000007  -0.000006
    23  H   -0.000000  -0.000004  -0.000000   0.000007   0.366878   0.000009
    24  H    0.000056  -0.000484  -0.000747  -0.000006   0.000009   0.362684
    25  H   -0.000034   0.000001  -0.000002  -0.000000   0.000000  -0.000000
    26  H   -0.000001  -0.000001   0.000008  -0.000000  -0.000000  -0.000001
    27  H   -0.001752   0.000058  -0.003050   0.000000   0.000000  -0.000000
    28  H   -0.006103   0.241101  -0.000946  -0.001354   0.000000   0.000033
    29  H   -0.006287   0.004486   0.209422   0.000000  -0.000000   0.000014
    30  H    0.219761  -0.007328  -0.003412   0.000000  -0.000000   0.000000
    31  H    0.000018  -0.000000  -0.000000   0.000000  -0.000000  -0.000000
    32  H    0.000020  -0.000002   0.000000   0.000000  -0.000000   0.000000
    33  H    0.013546   0.000172   0.002578  -0.000000  -0.000000  -0.000000
              25         26         27         28         29         30
     1  Si  -0.000895  -0.008877   0.012767  -0.007088  -0.002869  -0.002530
     2  O   -0.005913  -0.015590  -0.032877  -0.000131  -0.006714  -0.000090
     3  O   -0.000119   0.000378  -0.014185   0.001520  -0.026861  -0.009537
     4  O    0.002925  -0.000088  -0.004832   0.000342   0.000856  -0.000211
     5  O    0.000013   0.000159  -0.000194   0.001062  -0.000205   0.000159
     6  Si   0.005091  -0.000106   0.005976  -0.000440  -0.000492   0.000159
     7  Si  -0.000820   0.000686   0.016321   0.019089   0.068411   0.053428
     8  Si   0.042750   0.062494   0.089314  -0.000314   0.023004   0.000193
     9  Zr  -0.000410   0.000105   0.002613   0.002398  -0.001351   0.002250
    10  O   -0.000000   0.000000   0.000000   0.000360  -0.000000  -0.000000
    11  O    0.000000   0.000045  -0.000005  -0.000685  -0.000071   0.000002
    12  O    0.000000   0.000000  -0.000001   0.029538   0.000001   0.000067
    13  O    0.227684  -0.007368  -0.002454   0.000000   0.000563  -0.000002
    14  O   -0.008541   0.003529   0.187870  -0.000005   0.002529  -0.000441
    15  O    0.006817   0.232669   0.001596  -0.000002   0.000133   0.000000
    16  O    0.000171   0.000000  -0.000165  -0.000003  -0.000010  -0.000070
    17  O    0.000356  -0.000012   0.012907  -0.000009  -0.000261   0.000398
    18  O    0.010843   0.000010   0.000978   0.000000   0.000025  -0.000006
    19  O   -0.000034  -0.000001  -0.001752  -0.006103  -0.006287   0.219761
    20  O    0.000001  -0.000001   0.000058   0.241101   0.004486  -0.007328
    21  O   -0.000002   0.000008  -0.003050  -0.000946   0.209422  -0.003412
    22  H   -0.000000  -0.000000   0.000000  -0.001354   0.000000   0.000000
    23  H    0.000000  -0.000000   0.000000   0.000000  -0.000000  -0.000000
    24  H   -0.000000  -0.000001  -0.000000   0.000033   0.000014   0.000000
    25  H    0.304237  -0.000011  -0.000112  -0.000000  -0.000001   0.000000
    26  H   -0.000011   0.360787  -0.000053   0.000000   0.000011   0.000000
    27  H   -0.000112  -0.000053   0.309321   0.000000  -0.000372   0.000053
    28  H   -0.000000   0.000000   0.000000   0.286140  -0.000024   0.000065
    29  H   -0.000001   0.000011  -0.000372  -0.000024   0.298675   0.000134
    30  H    0.000000   0.000000   0.000053   0.000065   0.000134   0.332839
    31  H   -0.000322   0.000000   0.000010   0.000000   0.000000   0.000000
    32  H   -0.000001  -0.000000  -0.000000   0.000000  -0.000000   0.000000
    33  H   -0.000005   0.000000  -0.001514  -0.000003   0.000077  -0.000460
              31         32         33
     1  Si  -0.000831   0.000701  -0.017168
     2  O   -0.002581  -0.000177   0.001261
     3  O    0.000044   0.000371  -0.005493
     4  O   -0.023070   0.001718  -0.012110
     5  O    0.000096   0.000186  -0.000333
     6  Si   0.078716   0.030432   0.052031
     7  Si   0.000456  -0.000474   0.021843
     8  Si  -0.003660   0.000087  -0.003240
     9  Zr   0.000123   0.000948  -0.000077
    10  O   -0.000000   0.000000   0.000000
    11  O    0.000000  -0.000000   0.000004
    12  O    0.000000  -0.000002   0.000009
    13  O    0.002130  -0.000002   0.000662
    14  O   -0.000080  -0.000013   0.000385
    15  O   -0.000012   0.000000  -0.000153
    16  O   -0.001422   0.231261   0.000196
    17  O    0.001833  -0.002936   0.212782
    18  O    0.215276   0.004470   0.003252
    19  O    0.000018   0.000020   0.013546
    20  O   -0.000000  -0.000002   0.000172
    21  O   -0.000000   0.000000   0.002578
    22  H    0.000000   0.000000  -0.000000
    23  H   -0.000000  -0.000000  -0.000000
    24  H   -0.000000   0.000000  -0.000000
    25  H   -0.000322  -0.000001  -0.000005
    26  H    0.000000  -0.000000   0.000000
    27  H    0.000010  -0.000000  -0.001514
    28  H    0.000000   0.000000  -0.000003
    29  H    0.000000  -0.000000   0.000077
    30  H    0.000000   0.000000  -0.000460
    31  H    0.335533   0.000015  -0.000047
    32  H    0.000015   0.348060   0.000127
    33  H   -0.000047   0.000127   0.278327
 Mulliken charges:
               1
     1  Si   2.285704
     2  O   -1.345633
     3  O   -1.278261
     4  O   -1.173494
     5  O   -0.811718
     6  Si   2.278903
     7  Si   2.238086
     8  Si   2.252731
     9  Zr   1.399551
    10  O   -0.904336
    11  O   -0.719032
    12  O   -0.815637
    13  O   -0.829355
    14  O   -1.018609
    15  O   -0.854275
    16  O   -0.767739
    17  O   -1.042899
    18  O   -1.043652
    19  O   -1.052598
    20  O   -0.815348
    21  O   -0.872420
    22  H    0.397118
    23  H    0.372876
    24  H    0.387188
    25  H    0.416295
    26  H    0.371224
    27  H    0.421780
    28  H    0.435458
    29  H    0.437175
    30  H    0.414579
    31  H    0.397778
    32  H    0.385210
    33  H    0.453351
 Sum of Mulliken charges =  -0.00000
 Mulliken charges with hydrogens summed into heavy atoms:
               1
     1  Si   2.285704
     2  O   -1.345633
     3  O   -1.278261
     4  O   -1.173494
     5  O   -0.811718
     6  Si   2.278903
     7  Si   2.238086
     8  Si   2.252731
     9  Zr   1.399551
    10  O   -0.531461
    11  O   -0.331843
    12  O   -0.418519
    13  O   -0.413060
    14  O   -0.596829
    15  O   -0.483051
    16  O   -0.382529
    17  O   -0.589547
    18  O   -0.645874
    19  O   -0.638019
    20  O   -0.379890
    21  O   -0.435246
 Electronic spatial extent (au):  <R**2>=           8169.9301
 Charge=             -0.0000 electrons
 Dipole moment (field-independent basis, Debye):
    X=             -2.3972    Y=             -3.7312    Z=             -2.5372  Tot=              5.1094
 Quadrupole moment (field-independent basis, Debye-Ang):
   XX=           -156.5046   YY=           -156.3793   ZZ=           -160.0521
   XY=             -4.3494   XZ=              2.4840   YZ=             -7.6401
 Traceless Quadrupole moment (field-independent basis, Debye-Ang):
   XX=              1.1407   YY=              1.2661   ZZ=             -2.4068
   XY=             -4.3494   XZ=              2.4840   YZ=             -7.6401
 Octapole moment (field-independent basis, Debye-Ang**2):
  XXX=           -215.0771  YYY=            -18.5195  ZZZ=            -43.4409  XYY=            -61.1433
  XXY=            -36.5401  XXZ=            -65.9042  XZZ=              7.9761  YZZ=            -27.5288
  YYZ=            -29.7430  XYZ=              7.6638
 Hexadecapole moment (field-independent basis, Debye-Ang**3):
 XXXX=          -5456.3217 YYYY=          -2178.2713 ZZZZ=          -2181.8716 XXXY=             22.5118
 XXXZ=            150.2697 YYYX=             16.9510 YYYZ=            -91.9441 ZZZX=            173.6608
 ZZZY=           -107.3154 XXYY=          -1475.0925 XXZZ=          -1138.9181 YYZZ=           -720.1956
 XXYZ=             17.1751 YYXZ=            -30.6473 ZZXY=            -98.3218
 N-N= 3.020787351739D+03 E-N=-1.175354690395D+04  KE= 2.373083641066D+03
 PrsmSu:  requested number of processors reduced to:   2 ShMem   1 Linda.
 PrsmSu:  requested number of processors reduced to:  10 ShMem   1 Linda.
   1 Symmetry operations used in ECPInt.
 ECPInt:  NShTT=   13203 NPrTT=   78401 LenC2=   11888 LenP2D=   44968.
 LDataN:  DoStor=T MaxTD1= 9 Len=  602
 Number of processors reduced to  14 by ecpmxn.
 Calling FoFJK, ICntrl=      2127 FMM=F ISym2X=0 I1Cent= 0 IOpClX= 0 NMat=1 NMatS=1 NMatT=0.
 CoulSu:  requested number of processors reduced to:  10 ShMem   1 Linda.
 Defaulting to unpruned grid for atomic number  40.
 Defaulting to unpruned grid for atomic number  40.
 Defaulting to unpruned grid for atomic number  40.
 Defaulting to unpruned grid for atomic number  40.
 Defaulting to unpruned grid for atomic number  40.
 Defaulting to unpruned grid for atomic number  40.
 Defaulting to unpruned grid for atomic number  40.
 Defaulting to unpruned grid for atomic number  40.
 Defaulting to unpruned grid for atomic number  40.
 Defaulting to unpruned grid for atomic number  40.
 Defaulting to unpruned grid for atomic number  40.
 Defaulting to unpruned grid for atomic number  40.
 Defaulting to unpruned grid for atomic number  40.
 Defaulting to unpruned grid for atomic number  40.
 Defaulting to unpruned grid for atomic number  40.
 Defaulting to unpruned grid for atomic number  40.
 ***** Axes restored to original set *****
 -------------------------------------------------------------------
 Center     Atomic                   Forces (Hartrees/Bohr)
 Number     Number              X              Y              Z
 -------------------------------------------------------------------
      1       14           0.003952105   -0.000225605    0.002589634
      2        8          -0.000203376   -0.000188227   -0.000272517
      3        8          -0.000296358    0.000347242    0.002138045
      4        8          -0.000302820    0.000194801   -0.000262041
      5        8           0.000752948    0.000071167   -0.001301513
      6       14           0.000287653   -0.000192334   -0.000056275
      7       14          -0.002382908   -0.001734519   -0.004730896
      8       14           0.000264606    0.000151429   -0.000016212
      9       40          -0.001214590    0.002657030   -0.000133395
     10        8          -0.000382911    0.000024346    0.000398123
     11        8          -0.000909723    0.000022034    0.000888307
     12        8          -0.003395901   -0.003052823   -0.000353039
     13        8          -0.000084524   -0.000031262   -0.000049161
     14        8          -0.000110153   -0.000021556    0.000049745
     15        8          -0.000049366   -0.000079560   -0.000026207
     16        8          -0.000047114    0.000102068    0.000006435
     17        8          -0.000055886    0.000081350    0.000094986
     18        8          -0.000048427    0.000023356   -0.000017001
     19        8           0.000435313    0.000237883    0.000648751
     20        8           0.004851381    0.002265413   -0.003622256
     21        8           0.000360900    0.000500041    0.000705711
     22        1          -0.000507160   -0.000025952    0.000871872
     23        1          -0.000035242   -0.000136123    0.000069854
     24        1           0.000189091   -0.000131601   -0.000214222
     25        1           0.000019245    0.000005111    0.000020552
     26        1          -0.000005791    0.000022484    0.000007451
     27        1           0.000035746   -0.000020077   -0.000019435
     28        1          -0.000966977   -0.000896649    0.002741629
     29        1           0.000056872    0.000052583   -0.000102910
     30        1          -0.000175586    0.000069904    0.000045577
     31        1           0.000010051   -0.000004099    0.000019883
     32        1          -0.000004072   -0.000029998   -0.000003918
     33        1          -0.000037022   -0.000057855   -0.000115553
 -------------------------------------------------------------------
 Cartesian Forces:  Max     0.004851381 RMS     0.001215996

 GradGradGradGradGradGradGradGradGradGradGradGradGradGradGradGradGradGrad
 Berny optimization.
 FormGI is forming the generalized inverse of G from B-inverse, IUseBI=4.
 Internal  Forces:  Max     0.013154253 RMS     0.001858828
 Search for a local minimum.
 Step number   1 out of a maximum of  164
 All quantities printed in internal units (Hartrees-Bohrs-Radians)
 Mixed Optimization -- RFO/linear search
 Second derivative matrix not updated -- first step.
 ITU=  0
     Eigenvalues ---    0.00230   0.00230   0.00230   0.00526   0.03211
     Eigenvalues ---    0.03439   0.03520   0.03558   0.03586   0.03627
     Eigenvalues ---    0.03673   0.03711   0.03747   0.03753   0.03833
     Eigenvalues ---    0.03844   0.03910   0.03946   0.03957   0.04526
     Eigenvalues ---    0.04891   0.08510   0.08547   0.10635   0.11319
     Eigenvalues ---    0.11516   0.11815   0.11842   0.12054   0.12258
     Eigenvalues ---    0.12943   0.12968   0.13045   0.13226   0.14919
     Eigenvalues ---    0.15347   0.16000   0.16000   0.16000   0.16000
     Eigenvalues ---    0.16000   0.16000   0.16000   0.16000   0.16000
     Eigenvalues ---    0.16000   0.16000   0.16000   0.17756   0.18594
     Eigenvalues ---    0.18914   0.20145   0.20369   0.20384   0.21054
     Eigenvalues ---    0.21061   0.21266   0.21423   0.21864   0.22128
     Eigenvalues ---    0.22772   0.25000   0.25000   0.25000   0.36415
     Eigenvalues ---    0.37725   0.40032   0.40890   0.41311   0.41617
     Eigenvalues ---    0.42076   0.42599   0.43032   0.43450   0.43522
     Eigenvalues ---    0.44473   0.44608   0.45420   0.45878   0.46010
     Eigenvalues ---    0.50565   0.51158   0.51894   0.52645   0.52665
     Eigenvalues ---    0.54349   0.54581   0.54655   0.54658   0.54845
     Eigenvalues ---    0.55241   0.557791000.000001000.000001000.00000
     Eigenvalues --- 1000.000001000.000001000.000001000.000001000.00000
     Eigenvalues --- 1000.000001000.000001000.000001000.000001000.00000
     Eigenvalues --- 1000.000001000.000001000.000001000.000001000.00000
     Eigenvalues --- 1000.000001000.000001000.000001000.000001000.00000
     Eigenvalues --- 1000.000001000.000001000.000001000.000001000.00000
     Eigenvalues --- 1000.000001000.000001000.000001000.000001000.00000
     Eigenvalues --- 1000.000001000.000001000.000001000.000001000.00000
     Eigenvalues --- 1000.000001000.000001000.000001000.000001000.00000
     Eigenvalues --- 1000.000001000.000001000.000001000.000001000.00000
     Eigenvalues --- 1000.000001000.000001000.000001000.000001000.00000
     Eigenvalues --- 1000.000001000.000001000.000001000.000001000.00000
     Eigenvalues --- 1000.000001000.000001000.000001000.00000
 RFO step:  Lambda=-3.46365525D-03 EMin= 2.30000000D-03
 Linear search not attempted -- first point.
 Iteration  1 RMS(Cart)=  0.12697610 RMS(Int)=  0.00338159
 Iteration  2 RMS(Cart)=  0.00571724 RMS(Int)=  0.00020000
 Iteration  3 RMS(Cart)=  0.00000844 RMS(Int)=  0.00019992
 Iteration  4 RMS(Cart)=  0.00000000 RMS(Int)=  0.00019992
 Iteration  1 RMS(Cart)=  0.00005678 RMS(Int)=  0.00002917
 Iteration  2 RMS(Cart)=  0.00003968 RMS(Int)=  0.00003209
 Iteration  3 RMS(Cart)=  0.00002772 RMS(Int)=  0.00003698
 Iteration  4 RMS(Cart)=  0.00001937 RMS(Int)=  0.00004132
 Iteration  5 RMS(Cart)=  0.00001353 RMS(Int)=  0.00004467
 Iteration  6 RMS(Cart)=  0.00000946 RMS(Int)=  0.00004713
 Iteration  7 RMS(Cart)=  0.00000661 RMS(Int)=  0.00004890
 Iteration  8 RMS(Cart)=  0.00000462 RMS(Int)=  0.00005016
 Iteration  9 RMS(Cart)=  0.00000322 RMS(Int)=  0.00005105
 Iteration 10 RMS(Cart)=  0.00000225 RMS(Int)=  0.00005168
 Iteration 11 RMS(Cart)=  0.00000157 RMS(Int)=  0.00005211
 Iteration 12 RMS(Cart)=  0.00000110 RMS(Int)=  0.00005242
 Iteration 13 RMS(Cart)=  0.00000077 RMS(Int)=  0.00005264
 Variable       Old X    -DE/DX   Delta X   Delta X   Delta X     New X
                                 (Linear)    (Quad)   (Total)
    R1        3.07970   0.00023   0.00000   0.00049   0.00049   3.08019
    R2        3.15210  -0.00110   0.00000  -0.00272  -0.00272   3.14938
    R3        3.11330   0.00026   0.00000   0.00060   0.00060   3.11390
    R4        3.06222   0.00111   0.00000  -0.00762  -0.00736   3.05487
    R5        5.82195  -0.00625   0.00000  -0.02601  -0.02600   5.79595
    R6        3.13114  -0.00007   0.00000  -0.00016  -0.00016   3.13097
    R7        3.12526  -0.00445   0.00000  -0.01050  -0.01050   3.11477
    R8        3.11868  -0.00014   0.00000  -0.00033  -0.00033   3.11835
    R9        3.82373   0.00030   0.00000  -0.02262  -0.02285   3.80088
   R10        3.10818   0.00008   0.00000   0.00018   0.00018   3.10837
   R11        3.10731  -0.00002   0.00000  -0.00004  -0.00004   3.10727
   R12        3.13510   0.00001   0.00000   0.00003   0.00003   3.13513
   R13        3.18468   0.00013   0.00000   0.00034   0.00034   3.18501
   R14        3.07820   0.00347   0.00000   0.00749   0.00749   3.08569
   R15        3.08491  -0.00036   0.00000  -0.00079  -0.00079   3.08412
   R16        3.09593   0.00007   0.00000   0.00016   0.00016   3.09608
   R17        3.14061   0.00003   0.00000   0.00006   0.00006   3.14068
   R18        3.09434   0.00003   0.00000   0.00008   0.00008   3.09442
[...]
 Alpha virt. eigenvalues --    2.99329   3.04138   3.18067   3.27663   3.46452
 Alpha virt. eigenvalues --    3.48130   3.49149   3.49941   3.52457   3.56766
 Alpha virt. eigenvalues --    3.60065   3.61083   3.62121   3.63937   3.72918
 Alpha virt. eigenvalues --    3.76620   4.03847   4.11577   6.46778  30.88181
          Condensed to atoms (all electrons):
               1          2          3          4          5          6
     1  Si  23.925557  -1.241878  -2.616200  -1.541665  -3.835732  -0.141666
     2  O   -1.241878  10.031423   0.521742  -0.121656   0.257364  -0.102790
     3  O   -2.616200   0.521742  11.120989   0.406466   1.016805   0.047461
     4  O   -1.541665  -0.121656   0.406466   9.784452   0.546381  -0.557773
     5  O   -3.835732   0.257364   1.016805   0.546381  10.420614  -0.020076
     6  Si  -0.141666  -0.102790   0.047461  -0.557773  -0.020076  13.597721
     7  Si  -1.706387  -0.153798  -1.844988  -0.008010   0.299302   0.036381
     8  Si  -0.184758  -0.552668  -0.126950   0.050373   0.036481  -0.211033
     9  Zr  -1.218649   0.072513  -0.455196  -0.011066   0.224610   0.012144
    10  O   -0.022552   0.001110   0.008228   0.000855  -0.022888  -0.000799
    11  O    0.071566  -0.004756  -0.054129  -0.001635  -0.042392  -0.000293
    12  O    0.040190   0.004109  -0.025455  -0.010190  -0.024470  -0.002337
    13  O   -0.022566   0.229576   0.001309  -0.006760  -0.002329   0.064848
    14  O   -0.043379   0.383275   0.116203  -0.022378  -0.010831   0.011835
    15  O    0.010352   0.082726   0.006442   0.002715  -0.004853  -0.011722
    16  O    0.062658   0.013943  -0.006363   0.263417  -0.013018  -0.497224
    17  O   -0.078909  -0.042074   0.039844   0.256830   0.021796  -0.364977
    18  O   -0.084441  -0.007207  -0.013058   0.178863   0.006389  -0.306153
    19  O    0.147820  -0.006005   0.515068   0.018757  -0.009976  -0.008735
    20  O    0.221008  -0.007858   0.425745  -0.004764  -0.030759   0.001256
    21  O   -0.007043   0.047307   0.256400  -0.006381  -0.007777   0.000834
    22  H   -0.000081  -0.000005   0.004252   0.000195   0.000346  -0.000191
    23  H   -0.001487   0.000003  -0.000092   0.000002  -0.000261   0.000013
    24  H   -0.010155   0.000472   0.002693   0.000016   0.000276   0.000021
    25  H   -0.000834  -0.005665  -0.000090   0.002952  -0.000003   0.005150
    26  H   -0.008915  -0.015789   0.000398  -0.000085   0.000154  -0.000106
    27  H    0.014560  -0.033265  -0.015690  -0.004850  -0.000254   0.005373
    28  H   -0.007512  -0.000102  -0.001163   0.000325   0.001289  -0.000426
    29  H   -0.004251  -0.006475  -0.027588   0.000794  -0.000191  -0.000546
    30  H   -0.002193  -0.000072  -0.009725  -0.000221   0.000145  -0.000135
    31  H   -0.000558  -0.002470   0.000051  -0.022878   0.000070   0.078629
    32  H    0.000526  -0.000167   0.000410   0.002171   0.000176   0.029935
    33  H   -0.017396   0.001506  -0.006166  -0.012442  -0.000388   0.053622
               7          8          9         10         11         12
     1  Si  -1.706387  -0.184758  -1.218649  -0.022552   0.071566   0.040190
     2  O   -0.153798  -0.552668   0.072513   0.001110  -0.004756   0.004109
     3  O   -1.844988  -0.126950  -0.455196   0.008228  -0.054129  -0.025455
     4  O   -0.008010   0.050373  -0.011066   0.000855  -0.001635  -0.010190
     5  O    0.299302   0.036481   0.224610  -0.022888  -0.042392  -0.024470
     6  Si   0.036381  -0.211033   0.012144  -0.000799  -0.000293  -0.002337
     7  Si  16.565342   0.164627   0.274976   0.003236  -0.031521  -0.002580
     8  Si   0.164627  12.850712   0.076789  -0.000758   0.001983   0.002021
     9  Zr   0.274976   0.076789  11.834308  -0.072919   0.134577   0.087878
    10  O    0.003236  -0.000758  -0.072919   8.743853  -0.041598  -0.038605
    11  O   -0.031521   0.001983   0.134577  -0.041598   8.396888  -0.024572
    12  O   -0.002580   0.002021   0.087878  -0.038605  -0.024572   8.560527
    13  O    0.010743  -0.150080  -0.006805  -0.000001  -0.000061  -0.000006
    14  O   -0.134539  -0.490841  -0.030412  -0.000001  -0.000021  -0.000021
    15  O   -0.015006  -0.076862  -0.011416  -0.000003   0.000228   0.000019
    16  O   -0.002970  -0.015150  -0.014071  -0.000000   0.000007   0.000052
    17  O   -0.071820   0.120257  -0.012439  -0.000014  -0.000085   0.000021
    18  O   -0.004147   0.113963  -0.003613   0.000001  -0.000015  -0.000016
    19  O   -0.751735  -0.029087  -0.065570  -0.000060   0.000236  -0.003433
    20  O   -0.818528   0.004884  -0.067703  -0.000712   0.001962  -0.017801
    21  O   -0.233627  -0.042171  -0.013648  -0.000013   0.005835   0.001074
    22  H   -0.001079   0.000027  -0.029419  -0.002060   0.000289   0.268880
    23  H   -0.000244   0.000034  -0.079762   0.341698  -0.000469  -0.000283
    24  H    0.001956  -0.000909  -0.061602   0.000319   0.319759  -0.002163
    25  H   -0.000822   0.042938  -0.000407  -0.000000   0.000000   0.000000
    26  H    0.000662   0.063326   0.000053   0.000000   0.000045   0.000000
    27  H    0.017577   0.089213   0.002720   0.000000  -0.000005  -0.000001
    28  H    0.022597  -0.000313   0.002788   0.000450  -0.000770   0.032628
    29  H    0.071171   0.022555  -0.001300  -0.000000  -0.000088   0.000014
    30  H    0.054236   0.000153   0.002215   0.000000   0.000002   0.000088
    31  H    0.000448  -0.003874   0.000114  -0.000000   0.000000   0.000000
    32  H   -0.000504   0.000091   0.001036   0.000000  -0.000000  -0.000002
    33  H    0.022838  -0.003063   0.000014   0.000000   0.000004   0.000013
              13         14         15         16         17         18
     1  Si  -0.022566  -0.043379   0.010352   0.062658  -0.078909  -0.084441
     2  O    0.229576   0.383275   0.082726   0.013943  -0.042074  -0.007207
     3  O    0.001309   0.116203   0.006442  -0.006363   0.039844  -0.013058
     4  O   -0.006760  -0.022378   0.002715   0.263417   0.256830   0.178863
     5  O   -0.002329  -0.010831  -0.004853  -0.013018   0.021796   0.006389
     6  Si   0.064848   0.011835  -0.011722  -0.497224  -0.364977  -0.306153
     7  Si   0.010743  -0.134539  -0.015006  -0.002970  -0.071820  -0.004147
     8  Si  -0.150080  -0.490841  -0.076862  -0.015150   0.120257   0.113963
     9  Zr  -0.006805  -0.030412  -0.011416  -0.014071  -0.012439  -0.003613
    10  O   -0.000001  -0.000001  -0.000003  -0.000000  -0.000014   0.000001
    11  O   -0.000061  -0.000021   0.000228   0.000007  -0.000085  -0.000015
    12  O   -0.000006  -0.000021   0.000019   0.000052   0.000021  -0.000016
    13  O    8.629767   0.007125  -0.079978   0.003259  -0.024456  -0.044265
    14  O    0.007125   8.990227   0.084737   0.006261  -0.062250  -0.027593
    15  O   -0.079978   0.084737   8.612332  -0.000217   0.003651   0.002019
    16  O    0.003259   0.006261  -0.000217   8.936567  -0.124717  -0.075958
    17  O   -0.024456  -0.062250   0.003651  -0.124717   9.012450   0.173886
    18  O   -0.044265  -0.027593   0.002019  -0.075958   0.173886   8.901401
    19  O    0.000370   0.019512   0.000546  -0.001265  -0.013159  -0.000667
    20  O   -0.000021  -0.003705   0.000296  -0.000032   0.001719   0.000051
    21  O   -0.001115   0.045960   0.004796  -0.000042  -0.010181  -0.000092
    22  H   -0.000000  -0.000001   0.000000  -0.000000   0.000001  -0.000000
    23  H   -0.000000  -0.000000   0.000000   0.000000  -0.000000   0.000000
    24  H    0.000002  -0.000010   0.000009  -0.000000   0.000002   0.000000
    25  H    0.227611  -0.008529   0.006962   0.000203   0.000247   0.010671
    26  H   -0.007241   0.003636   0.232317   0.000000  -0.000013   0.000009
    27  H   -0.002298   0.186738   0.001597  -0.000172   0.013726   0.001080
    28  H    0.000000   0.000005  -0.000002  -0.000003  -0.000006   0.000000
    29  H    0.000536   0.002369   0.000108  -0.000010  -0.000258   0.000026
    30  H   -0.000001  -0.000380   0.000001  -0.000056   0.000266  -0.000007
    31  H    0.002208  -0.000082  -0.000013  -0.001489   0.001824   0.214953
    32  H   -0.000002  -0.000013   0.000000   0.231523  -0.002861   0.004445
    33  H    0.000619   0.000174  -0.000146   0.000349   0.211147   0.003187
              19         20         21         22         23         24
     1  Si   0.147820   0.221008  -0.007043  -0.000081  -0.001487  -0.010155
     2  O   -0.006005  -0.007858   0.047307  -0.000005   0.000003   0.000472
     3  O    0.515068   0.425745   0.256400   0.004252  -0.000092   0.002693
     4  O    0.018757  -0.004764  -0.006381   0.000195   0.000002   0.000016
     5  O   -0.009976  -0.030759  -0.007777   0.000346  -0.000261   0.000276
     6  Si  -0.008735   0.001256   0.000834  -0.000191   0.000013   0.000021
     7  Si  -0.751735  -0.818528  -0.233627  -0.001079  -0.000244   0.001956
     8  Si  -0.029087   0.004884  -0.042171   0.000027   0.000034  -0.000909
     9  Zr  -0.065570  -0.067703  -0.013648  -0.029419  -0.079762  -0.061602
    10  O   -0.000060  -0.000712  -0.000013  -0.002060   0.341698   0.000319
    11  O    0.000236   0.001962   0.005835   0.000289  -0.000469   0.319759
    12  O   -0.003433  -0.017801   0.001074   0.268880  -0.000283  -0.002163
    13  O    0.000370  -0.000021  -0.001115  -0.000000  -0.000000   0.000002
    14  O    0.019512  -0.003705   0.045960  -0.000001  -0.000000  -0.000010
    15  O    0.000546   0.000296   0.004796   0.000000   0.000000   0.000009
    16  O   -0.001265  -0.000032  -0.000042  -0.000000   0.000000  -0.000000
    17  O   -0.013159   0.001719  -0.010181   0.000001  -0.000000   0.000002
    18  O   -0.000667   0.000051  -0.000092  -0.000000   0.000000   0.000000
    19  O    9.024078   0.050323  -0.055880   0.000086  -0.000000   0.000046
    20  O    0.050323   8.732908   0.090971   0.003398  -0.000006  -0.000316
    21  O   -0.055880   0.090971   8.600763  -0.000008  -0.000000  -0.000792
    22  H    0.000086   0.003398  -0.000008   0.357540   0.000009  -0.000005
    23  H   -0.000000  -0.000006  -0.000000   0.000009   0.366435   0.000008
    24  H    0.000046  -0.000316  -0.000792  -0.000005   0.000008   0.362242
    25  H   -0.000031   0.000001   0.000001  -0.000000   0.000000  -0.000000
    26  H   -0.000000  -0.000001   0.000010  -0.000000  -0.000000  -0.000001
    27  H   -0.002176   0.000069  -0.003668   0.000000   0.000000  -0.000000
    28  H   -0.006068   0.236451  -0.001277  -0.002018   0.000000   0.000031
    29  H   -0.006869   0.004091   0.209057   0.000000  -0.000000   0.000015
    30  H    0.220546  -0.007908  -0.003607   0.000000  -0.000000   0.000000
    31  H    0.000015  -0.000000  -0.000000   0.000000  -0.000000  -0.000000
    32  H    0.000015  -0.000001   0.000000   0.000000  -0.000000   0.000000
    33  H    0.013796   0.000124   0.002536  -0.000000   0.000000  -0.000000
              25         26         27         28         29         30
     1  Si  -0.000834  -0.008915   0.014560  -0.007512  -0.004251  -0.002193
     2  O   -0.005665  -0.015789  -0.033265  -0.000102  -0.006475  -0.000072
     3  O   -0.000090   0.000398  -0.015690  -0.001163  -0.027588  -0.009725
     4  O    0.002952  -0.000085  -0.004850   0.000325   0.000794  -0.000221
     5  O   -0.000003   0.000154  -0.000254   0.001289  -0.000191   0.000145
     6  Si   0.005150  -0.000106   0.005373  -0.000426  -0.000546  -0.000135
     7  Si  -0.000822   0.000662   0.017577   0.022597   0.071171   0.054236
     8  Si   0.042938   0.063326   0.089213  -0.000313   0.022555   0.000153
     9  Zr  -0.000407   0.000053   0.002720   0.002788  -0.001300   0.002215
    10  O   -0.000000   0.000000   0.000000   0.000450  -0.000000   0.000000
    11  O    0.000000   0.000045  -0.000005  -0.000770  -0.000088   0.000002
    12  O    0.000000   0.000000  -0.000001   0.032628   0.000014   0.000088
    13  O    0.227611  -0.007241  -0.002298   0.000000   0.000536  -0.000001
    14  O   -0.008529   0.003636   0.186738   0.000005   0.002369  -0.000380
    15  O    0.006962   0.232317   0.001597  -0.000002   0.000108   0.000001
    16  O    0.000203   0.000000  -0.000172  -0.000003  -0.000010  -0.000056
    17  O    0.000247  -0.000013   0.013726  -0.000006  -0.000258   0.000266
    18  O    0.010671   0.000009   0.001080   0.000000   0.000026  -0.000007
    19  O   -0.000031  -0.000000  -0.002176  -0.006068  -0.006869   0.220546
    20  O    0.000001  -0.000001   0.000069   0.236451   0.004091  -0.007908
    21  O    0.000001   0.000010  -0.003668  -0.001277   0.209057  -0.003607
    22  H   -0.000000  -0.000000   0.000000  -0.002018   0.000000   0.000000
    23  H    0.000000  -0.000000   0.000000   0.000000  -0.000000  -0.000000
    24  H   -0.000000  -0.000001  -0.000000   0.000031   0.000015   0.000000
    25  H    0.304807  -0.000014  -0.000112  -0.000000  -0.000001   0.000000
    26  H   -0.000014   0.360599  -0.000053   0.000000   0.000010   0.000000
    27  H   -0.000112  -0.000053   0.308341  -0.000000  -0.000250   0.000050
    28  H   -0.000000   0.000000  -0.000000   0.280000  -0.000024   0.000058
    29  H   -0.000001   0.000010  -0.000250  -0.000024   0.301083   0.000144
    30  H    0.000000   0.000000   0.000050   0.000058   0.000144   0.334883
    31  H   -0.000389   0.000000   0.000011   0.000000   0.000000   0.000000
    32  H   -0.000001  -0.000000  -0.000000   0.000000  -0.000000   0.000000
    33  H   -0.000005   0.000000  -0.001446  -0.000003   0.000081  -0.000555
              31         32         33
     1  Si  -0.000558   0.000526  -0.017396
     2  O   -0.002470  -0.000167   0.001506
     3  O    0.000051   0.000410  -0.006166
     4  O   -0.022878   0.002171  -0.012442
     5  O    0.000070   0.000176  -0.000388
     6  Si   0.078629   0.029935   0.053622
     7  Si   0.000448  -0.000504   0.022838
     8  Si  -0.003874   0.000091  -0.003063
     9  Zr   0.000114   0.001036   0.000014
    10  O   -0.000000   0.000000   0.000000
    11  O    0.000000  -0.000000   0.000004
    12  O    0.000000  -0.000002   0.000013
    13  O    0.002208  -0.000002   0.000619
    14  O   -0.000082  -0.000013   0.000174
    15  O   -0.000013   0.000000  -0.000146
    16  O   -0.001489   0.231523   0.000349
    17  O    0.001824  -0.002861   0.211147
    18  O    0.214953   0.004445   0.003187
    19  O    0.000015   0.000015   0.013796
    20  O   -0.000000  -0.000001   0.000124
    21  O   -0.000000   0.000000   0.002536
    22  H    0.000000   0.000000  -0.000000
    23  H   -0.000000  -0.000000   0.000000
    24  H   -0.000000   0.000000  -0.000000
    25  H   -0.000389  -0.000001  -0.000005
    26  H    0.000000  -0.000000   0.000000
    27  H    0.000011  -0.000000  -0.001446
    28  H    0.000000   0.000000  -0.000003
    29  H    0.000000  -0.000000   0.000081
    30  H    0.000000   0.000000  -0.000555
    31  H    0.336189   0.000014  -0.000046
    32  H    0.000014   0.348376   0.000129
    33  H   -0.000046   0.000129   0.277226
 Mulliken charges:
               1
     1  Si   2.304971
     2  O   -1.342371
     3  O   -1.287654
     4  O   -1.182810
     5  O   -0.806003
     6  Si   2.281758
     7  Si   2.236213
     8  Si   2.248089
     9  Zr   1.429258
    10  O   -0.896766
    11  O   -0.730973
    12  O   -0.845578
    13  O   -0.829989
    14  O   -1.023071
    15  O   -0.851636
    16  O   -0.765483
    17  O   -1.049450
    18  O   -1.043712
    19  O   -1.050502
    20  O   -0.815142
    21  O   -0.878224
    22  H    0.399844
    23  H    0.374401
    24  H    0.388085
    25  H    0.415359
    26  H    0.370998
    27  H    0.423183
    28  H    0.443066
    29  H    0.435797
    30  H    0.412073
    31  H    0.397273
    32  H    0.384702
    33  H    0.454292
 Sum of Mulliken charges =  -0.00000
 Mulliken charges with hydrogens summed into heavy atoms:
               1
     1  Si   2.304971
     2  O   -1.342371
     3  O   -1.287654
     4  O   -1.182810
     5  O   -0.806003
     6  Si   2.281758
     7  Si   2.236213
     8  Si   2.248089
     9  Zr   1.429258
    10  O   -0.522365
    11  O   -0.342888
    12  O   -0.445734
    13  O   -0.414629
    14  O   -0.599888
    15  O   -0.480637
    16  O   -0.380781
    17  O   -0.595158
    18  O   -0.646439
    19  O   -0.638429
    20  O   -0.372075
    21  O   -0.442427
 Electronic spatial extent (au):  <R**2>=           8129.6031
 Charge=              0.0000 electrons
 Dipole moment (field-independent basis, Debye):
    X=             -2.6370    Y=             -3.6096    Z=             -2.7256  Tot=              5.2357
 Quadrupole moment (field-independent basis, Debye-Ang):
   XX=           -155.6680   YY=           -155.6144   ZZ=           -161.0210
   XY=             -4.2180   XZ=              2.3356   YZ=             -7.5088
 Traceless Quadrupole moment (field-independent basis, Debye-Ang):
   XX=              1.7665   YY=              1.8201   ZZ=             -3.5866
   XY=             -4.2180   XZ=              2.3356   YZ=             -7.5088
 Octapole moment (field-independent basis, Debye-Ang**2):
  XXX=           -216.3091  YYY=            -14.9752  ZZZ=            -43.6040  XYY=            -62.7803
  XXY=            -33.7256  XXZ=            -66.8657  XZZ=              9.1519  YZZ=            -27.7034
  YYZ=            -29.6746  XYZ=              7.8151
 Hexadecapole moment (field-independent basis, Debye-Ang**3):
 XXXX=          -5397.8126 YYYY=          -2169.4204 ZZZZ=          -2185.4279 XXXY=              2.0905
 XXXZ=            144.6073 YYYX=             28.3849 YYYZ=            -90.1314 ZZZX=            170.3769
 ZZZY=           -107.4640 XXYY=          -1460.6372 XXZZ=          -1138.9609 YYZZ=           -718.8355
 XXYZ=             10.1487 YYXZ=            -34.4553 ZZXY=            -97.9069
 N-N= 3.026156975748D+03 E-N=-1.176441984851D+04  KE= 2.373134315788D+03
 1\1\GINC-GRA631\FOpt\RB3LYP\Gen\H12O16Si4Zr1\SARASHS\29-Jul-2020\0\\#n
  B3LYP/Gen Pseudo=cards EmpiricalDispersion=GD3 Opt=modredundant\\Titl
 e\\0,1\Si,-0.1401338718,0.1381504073,-0.8993316948\O,-1.0079264094,-1.
 2359974806,-1.0331244013\O,0.5529019153,0.2293838637,0.6075044424\O,-1
 .1305552545,1.4346906239,-1.1349585181\O,1.1833851728,0.1741008149,-1.
 8347669827\Si,-2.6781116132,1.7450127752,-0.6544414908\Si,0.4681072179
 ,0.3124784805,2.2507000581\Si,-2.1563124143,-2.1232169529,-0.231555667
 3\Zr,2.9271254208,-0.0089708045,-0.8481297422\O,4.3251869515,0.0897045
 231,-2.1718613453\O,3.0153866486,-1.7156467116,0.0455455874\O,3.294533
 3735,1.46602878,0.4558058341\O,-3.5683867042,-2.0018039038,-1.05435638
 75\O,-2.266431609,-1.5660165893,1.3299053182\O,-1.6854372439,-3.684718
 2824,-0.0822251314\O,-2.9791911671,3.3371483775,-0.9385799135\O,-2.887
 0498478,1.2314340176,0.8936066728\O,-3.793234685,0.8499441017,-1.49609
 76312\O,-0.7270471911,1.4700079902,2.5252265785\O,1.9148556058,0.79083
 14955,2.8304230882\O,0.0573044578,-1.1167995465,2.9260712739\H,4.01155
 90829,2.1091649763,0.4857347926\H,5.0296542758,-0.1915314843,-2.758361
 0611\H,2.7542672498,-2.3375463459,0.729429143\H,-3.8032369456,-1.10554
 90672,-1.3530349347\H,-1.6071068625,-4.2023725357,-0.8903895565\H,-2.7
 752512776,-0.7382299384,1.3946164563\H,2.5130863357,1.1489157181,2.141
 5829471\H,-0.7704593818,-1.4926894837,2.5686392519\H,-0.8150809169,1.7
 736455227,3.437247438\H,-4.1667769464,1.2675052467,-2.2807836134\H,-2.
 2134719794,3.9030239532,-1.0883278657\H,-2.1728313866,1.4623374591,1.5
 307370549\\Version=ES64L-G16RevB.01\State=1-A\HF=-2416.9436044\RMSD=2.
 747e-09\RMSF=3.256e-04\Dipole=1.0048057,1.4211318,-1.1017438\Quadrupol
 e=1.2486198,1.3604626,-2.6090824,-3.0018408,-1.8475716,5.6405387\PG=C0
 1 [X(H12O16Si4Zr1)]\\@


 You never know when you're making a memory.
                        -- Rickie Lee Jones
 Job cpu time:       1 days  4 hours 32 minutes  9.5 seconds.
 Elapsed time:       0 days  2 hours  7 minutes 55.4 seconds.
 File lengths (MBytes):  RWF=    167 Int=      0 D2E=      0 Chk=     21 Scr=      1
 Normal termination of Gaussian 16 at Wed Jul 29 22:14:08 2020.
