 Entering Gaussian System, Link 0=g16
 Initial command:
 /opt/software/gaussian/g16.b01/l1.exe "/localscratch/sarashs.33453283.0/Gau-59483.inp" -scrdir="/localscratch/sarashs.33453283.0/"
 Entering Link 1 = /opt/software/gaussian/g16.b01/l1.exe PID=     59484.
  
 Copyright (c) 1988-2017, Gaussian, Inc.  All Rights Reserved.
  
 This is part of the Gaussian(R) 16 program.  It is based on
 the Gaussian(R) 09 system (copyright 2009, Gaussian, Inc.),
 the Gaussian(R) 03 system (copyright 2003, Gaussian, Inc.),
 the Gaussian(R) 98 system (copyright 1998, Gaussian, Inc.),
 the Gaussian(R) 94 system (copyright 1995, Gaussian, Inc.),
 the Gaussian 92(TM) system (copyright 1992, Gaussian, Inc.),
 the Gaussian 90(TM) system (copyright 1990, Gaussian, Inc.),
 the Gaussian 88(TM) system (copyright 1988, Gaussian, Inc.),
 the Gaussian 86(TM) system (copyright 1986, Carnegie Mellon
 University), and the Gaussian 82(TM) system (copyright 1983,
 Carnegie Mellon University). Gaussian is a federally registered
 trademark of Gaussian, Inc.
  
 This software contains proprietary and confidential information,
 including trade secrets, belonging to Gaussian, Inc.
  
 This software is provided under written license and may be
 used, copied, transmitted, or stored only in accord with that
 written license.
  
 The following legend is applicable only to US Government
 contracts under FAR:
  
                    RESTRICTED RIGHTS LEGEND
  
 Use, reproduction and disclosure by the US Government is
 subject to restrictions as set forth in subparagraphs (a)
 and (c) of the Commercial Computer Software - Restricted
 Rights clause in FAR 52.227-19.
  
 Gaussian, Inc.
 340 Quinnipiac St., Bldg. 40, Wallingford CT 06492
  
  
 ---------------------------------------------------------------
 Warning -- This program may not be used in any manner that
 competes with the business of Gaussian, Inc. or will provide
 assistance to any competitor of Gaussian, Inc.  The licensee
 of this program is prohibited from giving any competitor of
 Gaussian, Inc. access to this program.  By using this program,
 the user acknowledges that Gaussian, Inc. is engaged in the
 business of creating and licensing software in the field of
 computational chemistry and represents and warrants to the
 licensee that it is not a competitor of Gaussian, Inc. and that
 it will not use this program in any manner prohibited above.
 ---------------------------------------------------------------
  

 Cite this work as:
 Gaussian 16, Revision B.01,
 M. J. Frisch, G. W. Trucks, H. B. Schlegel, G. E. Scuseria, 
 M. A. Robb, J. R. Cheeseman, G. Scalmani, V. Barone, 
 G. A. Petersson, H. Nakatsuji, X. Li, M. Caricato, A. V. Marenich, 
 J. Bloino, B. G. Janesko, R. Gomperts, B. Mennucci, H. P. Hratchian, 
 J. V. Ortiz, A. F. Izmaylov, J. L. Sonnenberg, D. Williams-Young, 
 F. Ding, F. Lipparini, F. Egidi, J. Goings, B. Peng, A. Petrone, 
 T. Henderson, D. Ranasinghe, V. G. Zakrzewski, J. Gao, N. Rega, 
 G. Zheng, W. Liang, M. Hada, M. Ehara, K. Toyota, R. Fukuda, 
 J. Hasegawa, M. Ishida, T. Nakajima, Y. Honda, O. Kitao, H. Nakai, 
 T. Vreven, K. Throssell, J. A. Montgomery, Jr., J. E. Peralta, 
 F. Ogliaro, M. J. Bearpark, J. J. Heyd, E. N. Brothers, K. N. Kudin, 
 V. N. Staroverov, T. A. Keith, R. Kobayashi, J. Normand, 
 K. Raghavachari, A. P. Rendell, J. C. Burant, S. S. Iyengar, 
 J. Tomasi, M. Cossi, J. M. Millam, M. Klene, C. Adamo, R. Cammi, 
 J. W. Ochterski, R. L. Martin, K. Morokuma, O. Farkas, 
 J. B. Foresman, and D. J. Fox, Gaussian, Inc., Wallingford CT, 2016.
 
 ******************************************
 Gaussian 16:  ES64L-G16RevB.01 20-Dec-2017
                24-Jun-2020 
 ******************************************
 %NProcShared=16
 Will use up to   16 processors via shared memory.
 ------------------------------------------
 #n B3LYP/GEN PSEUDO=READ Opt(modredundant)
 ------------------------------------------
 1/18=120,19=15,26=3,38=1/1,3;
 2/9=110,12=2,17=6,18=5,40=1/2;
 3/5=7,11=2,16=1,17=8,25=1,30=1,71=1,74=-5/1,2,3;
 4//1;
 5/5=2,38=5/2;
 6/7=2,8=2,9=2,10=2,28=1/1;
 7//1,2,3,16;
 1/18=20,19=15,26=3/3(2);
 2/9=110/2;
 99//99;
 2/9=110/2;
 3/5=7,6=1,11=2,16=1,17=8,25=1,30=1,71=1,74=-5,82=7/1,2,3;
 4/5=5,16=3,69=1/1;
 5/5=2,38=5/2;
 7//1,2,3,16;
 1/18=20,19=15,26=3/3(-5);
 2/9=110/2;
 6/7=2,8=2,9=2,10=2,19=2,28=1/1;
 99/9=1/99;
 -----
 Title
 -----
 Symbolic Z-matrix:
 Charge =  0 Multiplicity = 1
 Si                   -2.76356   0.50373  -0.80236 
 O                    -2.64408  -0.06281   0.73154 
 O                    -3.71347   1.8573   -0.78988 
 O                    -3.46982  -0.65647  -1.71915 
 O                    -1.26704   0.87374  -1.30905 
 Zr                    0.67573   0.59039  -0.87312 
 Si                   -2.95182  -0.40071   2.29443 
 Si                   -5.29329   2.11319  -0.39088 
 Si                   -4.65193  -1.79724  -1.46558 
 O                     1.42115  -0.99623  -1.68135 
 Zr                    3.08527  -2.15478  -1.8587 
 O                     1.02397   0.24869   1.09117 
 Zr                    2.3931   -0.83877   2.0028 
 O                     1.83293   2.11762  -1.32953 
 Zr                    3.69305   2.75827  -1.05465 
 O                    -6.30259   1.76732  -1.65717 
 O                    -5.44687   3.68028   0.05984 
 O                    -5.76721   1.08545   0.81639 
 O                    -3.50601  -1.97299   2.26095 
 O                    -4.03994   0.60192   2.98173 
 O                    -1.51274  -0.31185   3.10045 
 O                    -4.9739   -2.52135  -2.90029 
 O                    -6.04082  -1.02047  -0.97357 
 O                    -4.21989  -2.88703  -0.34024 
 H                    -6.38886  -0.36717  -1.60281 
 H                    -4.21233  -2.86813  -3.37752 
 H                    -3.92943  -2.60256   0.54609 
 H                    -4.78107   0.84544   2.39047 
 H                    -6.04405   0.21773   0.45311 
 H                    -6.24075   2.34318  -2.42744 
 H                    -4.62851   4.12226   0.31086 
 H                    -0.83615   0.10482   2.53314 
 H                    -4.05643  -2.25627   2.99954 
 O                     3.16752  -2.58996  -3.77597 
 H                     3.72675  -2.28757  -4.49822 
 O                     4.6338   -1.00711  -1.59846 
 H                     4.85738  -0.24825  -1.02266 
 O                     3.09548  -4.03671  -1.09423 
 H                     3.15865  -4.83924  -1.62356 
 O                     4.58885   1.30257  -0.03772 
 H                     4.57709   1.08119   0.91735 
 O                     4.59729   2.97547  -2.77465 
 H                     4.90862   3.60023  -3.43385 
 O                     3.63584   4.40318  -0.0121 
 H                     3.17906   5.12123   0.43009 
 O                     2.95736  -2.20469   0.65457 
 H                     3.00977  -3.17903   0.58407 
 O                     3.95019   0.32966   2.47735 
 H                     4.32824   0.60927   3.31823 
 O                     1.5305   -1.57735   3.57665 
 H                     0.59066  -1.46673   3.80837 
 
 The following ModRedundant input section has been read:
 A       1       5       6 F                                                   
 

 GradGradGradGradGradGradGradGradGradGradGradGradGradGradGradGradGradGrad
 Berny optimization.
 Initialization pass.
                           ----------------------------
                           !    Initial Parameters    !
                           ! (Angstroms and Degrees)  !
 --------------------------                            --------------------------
 ! Name  Definition              Value          Derivative Info.                !
 --------------------------------------------------------------------------------
 ! R1    R(1,2)                  1.6395         estimate D2E/DX2                !
 ! R2    R(1,3)                  1.6537         estimate D2E/DX2                !
 ! R3    R(1,4)                  1.6387         estimate D2E/DX2                !
 ! R4    R(1,5)                  1.6227         estimate D2E/DX2                !
 ! R5    R(2,7)                  1.6283         estimate D2E/DX2                !
 ! R6    R(3,8)                  1.6494         estimate D2E/DX2                !
 ! R7    R(4,9)                  1.6622         estimate D2E/DX2                !
 ! R8    R(5,6)                  2.0111         estimate D2E/DX2                !
 ! R9    R(6,10)                 1.9303         estimate D2E/DX2                !
 ! R10   R(6,12)                 2.024          estimate D2E/DX2                !
 ! R11   R(6,14)                 1.9697         estimate D2E/DX2                !
 ! R12   R(7,19)                 1.6674         estimate D2E/DX2                !
 ! R13   R(7,20)                 1.6315         estimate D2E/DX2                !
 ! R14   R(7,21)                 1.6518         estimate D2E/DX2                !
 ! R15   R(8,16)                 1.6558         estimate D2E/DX2                !
 ! R16   R(8,17)                 1.6378         estimate D2E/DX2                !
 ! R17   R(8,18)                 1.6548         estimate D2E/DX2                !
 ! R18   R(9,22)                 1.639          estimate D2E/DX2                !
 ! R19   R(9,23)                 1.6657         estimate D2E/DX2                !
 ! R20   R(9,24)                 1.625          estimate D2E/DX2                !
 ! R21   R(10,11)                2.0354         estimate D2E/DX2                !
 ! R22   R(11,34)                1.9678         estimate D2E/DX2                !
 ! R23   R(11,36)                1.9449         estimate D2E/DX2                !
 ! R24   R(11,38)                2.0313         estimate D2E/DX2                !
 ! R25   R(12,13)                1.9718         estimate D2E/DX2                !
 ! R26   R(13,46)                2.0005         estimate D2E/DX2                !
 ! R27   R(13,48)                2.0037         estimate D2E/DX2                !
 ! R28   R(13,50)                1.9408         estimate D2E/DX2                !
 ! R29   R(14,15)                1.9865         estimate D2E/DX2                !
 ! R30   R(15,40)                1.9889         estimate D2E/DX2                !
 ! R31   R(15,42)                1.9553         estimate D2E/DX2                !
 ! R32   R(15,44)                1.9483         estimate D2E/DX2                !
 ! R33   R(16,30)                0.9637         estimate D2E/DX2                !
 ! R34   R(17,31)                0.9634         estimate D2E/DX2                !
 ! R35   R(18,29)                0.9806         estimate D2E/DX2                !
 ! R36   R(19,33)                0.9637         estimate D2E/DX2                !
 ! R37   R(20,28)                0.9789         estimate D2E/DX2                !
 ! R38   R(21,32)                0.9763         estimate D2E/DX2                !
 ! R39   R(22,26)                0.9633         estimate D2E/DX2                !
 ! R40   R(23,25)                0.9715         estimate D2E/DX2                !
 ! R41   R(24,27)                0.9751         estimate D2E/DX2                !
 ! R42   R(34,35)                0.9622         estimate D2E/DX2                !
 ! R43   R(36,37)                0.9785         estimate D2E/DX2                !
 ! R44   R(38,39)                0.9634         estimate D2E/DX2                !
 ! R45   R(40,41)                0.9805         estimate D2E/DX2                !
 ! R46   R(42,43)                0.9601         estimate D2E/DX2                !
 ! R47   R(44,45)                0.959          estimate D2E/DX2                !
 ! R48   R(46,47)                0.9783         estimate D2E/DX2                !
 ! R49   R(48,49)                0.9634         estimate D2E/DX2                !
 ! R50   R(50,51)                0.9743         estimate D2E/DX2                !
 ! A1    A(2,1,3)              108.5202         estimate D2E/DX2                !
 ! A2    A(2,1,4)              108.0696         estimate D2E/DX2                !
 ! A3    A(2,1,5)              107.6808         estimate D2E/DX2                !
 ! A4    A(3,1,4)              109.6434         estimate D2E/DX2                !
 ! A5    A(3,1,5)              110.2104         estimate D2E/DX2                !
 ! A6    A(4,1,5)              112.595          estimate D2E/DX2                !
 ! A7    A(1,2,7)              162.9195         estimate D2E/DX2                !
 ! A8    A(1,3,8)              132.766          estimate D2E/DX2                !
 ! A9    A(1,4,9)              134.9946         estimate D2E/DX2                !
 ! A10   A(1,5,6)              142.2858         Frozen                          !
 ! A11   A(5,6,10)             113.4581         estimate D2E/DX2                !
 ! A12   A(5,6,12)             113.6007         estimate D2E/DX2                !
 ! A13   A(5,6,14)             114.0827         estimate D2E/DX2                !
 ! A14   A(10,6,12)            101.6039         estimate D2E/DX2                !
 ! A15   A(10,6,14)            108.2645         estimate D2E/DX2                !
 ! A16   A(12,6,14)            104.7556         estimate D2E/DX2                !
 ! A17   A(2,7,19)             103.84           estimate D2E/DX2                !
 ! A18   A(2,7,20)             113.7575         estimate D2E/DX2                !
 ! A19   A(2,7,21)             107.0096         estimate D2E/DX2                !
 ! A20   A(19,7,20)            111.4863         estimate D2E/DX2                !
 ! A21   A(19,7,21)            110.4922         estimate D2E/DX2                !
 ! A22   A(20,7,21)            110.0253         estimate D2E/DX2                !
 ! A23   A(3,8,16)             111.4953         estimate D2E/DX2                !
 ! A24   A(3,8,17)             107.7477         estimate D2E/DX2                !
 ! A25   A(3,8,18)             110.7593         estimate D2E/DX2                !
 ! A26   A(16,8,17)            110.6802         estimate D2E/DX2                !
 ! A27   A(16,8,18)            104.6923         estimate D2E/DX2                !
 ! A28   A(17,8,18)            111.5071         estimate D2E/DX2                !
 ! A29   A(4,9,22)             108.021          estimate D2E/DX2                !
 ! A30   A(4,9,23)             108.5421         estimate D2E/DX2                !
 ! A31   A(4,9,24)             112.1363         estimate D2E/DX2                !
 ! A32   A(22,9,23)            107.505          estimate D2E/DX2                !
 ! A33   A(22,9,24)            111.2311         estimate D2E/DX2                !
 ! A34   A(23,9,24)            109.2613         estimate D2E/DX2                !
 ! A35   A(6,10,11)            145.088          estimate D2E/DX2                !
 ! A36   A(10,11,34)           104.1788         estimate D2E/DX2                !
 ! A37   A(10,11,36)           107.6627         estimate D2E/DX2                !
 ! A38   A(10,11,38)           119.911          estimate D2E/DX2                !
 ! A39   A(34,11,36)           103.1552         estimate D2E/DX2                !
 ! A40   A(34,11,38)            99.299          estimate D2E/DX2                !
 ! A41   A(36,11,38)           119.4938         estimate D2E/DX2                !
 ! A42   A(6,12,13)            131.3964         estimate D2E/DX2                !
 ! A43   A(12,13,46)           105.1189         estimate D2E/DX2                !
 ! A44   A(12,13,48)           109.1153         estimate D2E/DX2                !
 ! A45   A(12,13,50)           106.0327         estimate D2E/DX2                !
 ! A46   A(46,13,48)           109.7906         estimate D2E/DX2                !
 ! A47   A(46,13,50)           114.3344         estimate D2E/DX2                !
 ! A48   A(48,13,50)           112.0396         estimate D2E/DX2                !
 ! A49   A(6,14,15)            140.1851         estimate D2E/DX2                !
 ! A50   A(14,15,40)           104.8601         estimate D2E/DX2                !
 ! A51   A(14,15,42)           110.3126         estimate D2E/DX2                !
 ! A52   A(14,15,44)           108.5925         estimate D2E/DX2                !
 ! A53   A(40,15,42)           108.8315         estimate D2E/DX2                !
 ! A54   A(40,15,44)           110.9506         estimate D2E/DX2                !
 ! A55   A(42,15,44)           112.9859         estimate D2E/DX2                !
 ! A56   A(8,16,30)            116.5711         estimate D2E/DX2                !
 ! A57   A(8,17,31)            115.5324         estimate D2E/DX2                !
 ! A58   A(8,18,29)            111.1097         estimate D2E/DX2                !
 ! A59   A(7,19,33)            116.8474         estimate D2E/DX2                !
 ! A60   A(7,20,28)            113.7913         estimate D2E/DX2                !
 ! A61   A(7,21,32)            110.0697         estimate D2E/DX2                !
 ! A62   A(9,22,26)            115.9371         estimate D2E/DX2                !
 ! A63   A(9,23,25)            114.8968         estimate D2E/DX2                !
 ! A64   A(9,24,27)            120.8639         estimate D2E/DX2                !
 ! A65   A(11,34,35)           133.3267         estimate D2E/DX2                !
 ! A66   A(11,36,37)           135.9148         estimate D2E/DX2                !
 ! A67   A(11,38,39)           124.4221         estimate D2E/DX2                !
 ! A68   A(15,40,41)           131.1417         estimate D2E/DX2                !
 ! A69   A(15,42,43)           145.7113         estimate D2E/DX2                !
 ! A70   A(15,44,45)           153.2303         estimate D2E/DX2                !
 ! A71   A(13,46,47)           138.0495         estimate D2E/DX2                !
 ! A72   A(13,48,49)           132.9125         estimate D2E/DX2                !
 ! A73   A(13,50,51)           125.3389         estimate D2E/DX2                !
 ! D1    D(3,1,2,7)             26.3443         estimate D2E/DX2                !
 ! D2    D(4,1,2,7)            -92.4856         estimate D2E/DX2                !
 ! D3    D(5,1,2,7)            145.6313         estimate D2E/DX2                !
 ! D4    D(2,1,3,8)            -62.7632         estimate D2E/DX2                !
 ! D5    D(4,1,3,8)             55.0697         estimate D2E/DX2                !
 ! D6    D(5,1,3,8)            179.5501         estimate D2E/DX2                !
 ! D7    D(2,1,4,9)             35.4977         estimate D2E/DX2                !
 ! D8    D(3,1,4,9)            -82.6158         estimate D2E/DX2                !
 ! D9    D(5,1,4,9)            154.3011         estimate D2E/DX2                !
 ! D10   D(2,1,5,6)             15.3146         estimate D2E/DX2                !
 ! D11   D(3,1,5,6)            133.5186         estimate D2E/DX2                !
 ! D12   D(4,1,5,6)           -103.7158         estimate D2E/DX2                !
 ! D13   D(1,2,7,19)           100.9483         estimate D2E/DX2                !
 ! D14   D(1,2,7,20)           -20.4241         estimate D2E/DX2                !
 ! D15   D(1,2,7,21)          -142.1534         estimate D2E/DX2                !
 ! D16   D(1,3,8,16)           -83.6614         estimate D2E/DX2                !
 ! D17   D(1,3,8,17)           154.7            estimate D2E/DX2                !
 ! D18   D(1,3,8,18)            32.4929         estimate D2E/DX2                !
 ! D19   D(1,4,9,22)           173.7129         estimate D2E/DX2                !
 ! D20   D(1,4,9,23)            57.4339         estimate D2E/DX2                !
 ! D21   D(1,4,9,24)           -63.3679         estimate D2E/DX2                !
 ! D22   D(1,5,6,10)            88.4213         estimate D2E/DX2                !
 ! D23   D(1,5,6,12)           -26.9747         estimate D2E/DX2                !
 ! D24   D(1,5,6,14)          -146.9563         estimate D2E/DX2                !
 ! D25   D(5,6,10,11)         -177.8682         estimate D2E/DX2                !
 ! D26   D(12,6,10,11)         -55.5485         estimate D2E/DX2                !
 ! D27   D(14,6,10,11)          54.4242         estimate D2E/DX2                !
 ! D28   D(5,6,12,13)          148.1498         estimate D2E/DX2                !
 ! D29   D(10,6,12,13)          25.9285         estimate D2E/DX2                !
 ! D30   D(14,6,12,13)         -86.7114         estimate D2E/DX2                !
 ! D31   D(5,6,14,15)          169.9961         estimate D2E/DX2                !
 ! D32   D(10,6,14,15)         -62.6545         estimate D2E/DX2                !
 ! D33   D(12,6,14,15)          45.1616         estimate D2E/DX2                !
 ! D34   D(2,7,19,33)         -156.8425         estimate D2E/DX2                !
 ! D35   D(20,7,19,33)         -33.9627         estimate D2E/DX2                !
 ! D36   D(21,7,19,33)          88.7198         estimate D2E/DX2                !
 ! D37   D(2,7,20,28)           39.0047         estimate D2E/DX2                !
 ! D38   D(19,7,20,28)         -78.0052         estimate D2E/DX2                !
 ! D39   D(21,7,20,28)         159.0451         estimate D2E/DX2                !
 ! D40   D(2,7,21,32)           12.2859         estimate D2E/DX2                !
 ! D41   D(19,7,21,32)         124.7052         estimate D2E/DX2                !
 ! D42   D(20,7,21,32)        -111.7631         estimate D2E/DX2                !
 ! D43   D(3,8,16,30)          -66.936          estimate D2E/DX2                !
 ! D44   D(17,8,16,30)          52.9866         estimate D2E/DX2                !
 ! D45   D(18,8,16,30)         173.2574         estimate D2E/DX2                !
 ! D46   D(3,8,17,31)          -19.3558         estimate D2E/DX2                !
 ! D47   D(16,8,17,31)        -141.4996         estimate D2E/DX2                !
 ! D48   D(18,8,17,31)         102.3883         estimate D2E/DX2                !
 ! D49   D(3,8,18,29)          -84.4645         estimate D2E/DX2                !
 ! D50   D(16,8,18,29)          35.8337         estimate D2E/DX2                !
 ! D51   D(17,8,18,29)         155.5519         estimate D2E/DX2                !
 ! D52   D(4,9,22,26)           52.0376         estimate D2E/DX2                !
 ! D53   D(23,9,22,26)         168.99           estimate D2E/DX2                !
 ! D54   D(24,9,22,26)         -71.4318         estimate D2E/DX2                !
 ! D55   D(4,9,23,25)           59.2735         estimate D2E/DX2                !
 ! D56   D(22,9,23,25)         -57.3378         estimate D2E/DX2                !
 ! D57   D(24,9,23,25)        -178.1643         estimate D2E/DX2                !
 ! D58   D(4,9,24,27)           54.0597         estimate D2E/DX2                !
 ! D59   D(22,9,24,27)         175.1468         estimate D2E/DX2                !
 ! D60   D(23,9,24,27)         -66.3256         estimate D2E/DX2                !
 ! D61   D(6,10,11,34)        -136.8772         estimate D2E/DX2                !
 ! D62   D(6,10,11,36)         -27.8024         estimate D2E/DX2                !
 ! D63   D(6,10,11,38)         113.3911         estimate D2E/DX2                !
 ! D64   D(10,11,34,35)        105.9341         estimate D2E/DX2                !
 ! D65   D(36,11,34,35)         -6.4261         estimate D2E/DX2                !
 ! D66   D(38,11,34,35)       -129.8343         estimate D2E/DX2                !
 ! D67   D(10,11,36,37)         37.7964         estimate D2E/DX2                !
 ! D68   D(34,11,36,37)        147.577          estimate D2E/DX2                !
 ! D69   D(38,11,36,37)       -103.5878         estimate D2E/DX2                !
 ! D70   D(10,11,38,39)        114.2539         estimate D2E/DX2                !
 ! D71   D(34,11,38,39)          1.8863         estimate D2E/DX2                !
 ! D72   D(36,11,38,39)       -109.0648         estimate D2E/DX2                !
 ! D73   D(6,12,13,46)         -23.7705         estimate D2E/DX2                !
 ! D74   D(6,12,13,48)          93.9286         estimate D2E/DX2                !
 ! D75   D(6,12,13,50)        -145.2201         estimate D2E/DX2                !
 ! D76   D(12,13,46,47)       -123.8174         estimate D2E/DX2                !
 ! D77   D(48,13,46,47)        118.9423         estimate D2E/DX2                !
 ! D78   D(50,13,46,47)         -7.9577         estimate D2E/DX2                !
 ! D79   D(12,13,48,49)        115.0455         estimate D2E/DX2                !
 ! D80   D(46,13,48,49)       -130.2408         estimate D2E/DX2                !
 ! D81   D(50,13,48,49)         -2.0615         estimate D2E/DX2                !
 ! D82   D(12,13,50,51)          3.8975         estimate D2E/DX2                !
 ! D83   D(46,13,50,51)       -111.4303         estimate D2E/DX2                !
 ! D84   D(48,13,50,51)        122.8391         estimate D2E/DX2                !
 ! D85   D(6,14,15,40)           2.4023         estimate D2E/DX2                !
 ! D86   D(6,14,15,42)         119.4233         estimate D2E/DX2                !
 ! D87   D(6,14,15,44)        -116.2545         estimate D2E/DX2                !
 ! D88   D(14,15,40,41)        -80.6715         estimate D2E/DX2                !
 ! D89   D(42,15,40,41)        161.2971         estimate D2E/DX2                !
 ! D90   D(44,15,40,41)         36.3812         estimate D2E/DX2                !
 ! D91   D(14,15,42,43)        104.4331         estimate D2E/DX2                !
 ! D92   D(40,15,42,43)       -141.0367         estimate D2E/DX2                !
 ! D93   D(44,15,42,43)        -17.3237         estimate D2E/DX2                !
 ! D94   D(14,15,44,45)         -4.8202         estimate D2E/DX2                !
 ! D95   D(40,15,44,45)       -119.5621         estimate D2E/DX2                !
 ! D96   D(42,15,44,45)        117.9            estimate D2E/DX2                !
 --------------------------------------------------------------------------------
 Trust Radius=3.00D-01 FncErr=1.00D-07 GrdErr=1.00D-06 EigMax=2.50D+02 EigMin=1.00D-04
 Number of steps in this run=    229 maximum allowed number of steps=    306.
 GradGradGradGradGradGradGradGradGradGradGradGradGradGradGradGradGradGrad

 Stoichiometry    H18O25Si4Zr4
 Framework group  C1[X(H18O25Si4Zr4)]
 Deg. of freedom   147
 Full point group                 C1      NOp   1
 Largest Abelian subgroup         C1      NOp   1
 Largest concise Abelian subgroup C1      NOp   1
                         Standard orientation:                         
 ---------------------------------------------------------------------
 Center     Atomic      Atomic             Coordinates (Angstroms)
 Number     Number       Type             X           Y           Z
 ---------------------------------------------------------------------
      1         14           0       -2.801590    0.504425   -0.706755
      2          8           0       -2.777191   -0.096309    0.818569
      3          8           0       -3.743170    1.863786   -0.720927
      4          8           0       -3.458025   -0.630656   -1.689637
      5          8           0       -1.275443    0.875303   -1.114846
      6         40           0        0.636192    0.569369   -0.570111
      7         14           0       -3.179731   -0.466210    2.352401
      8         14           0       -5.342619    2.121561   -0.411369
      9         14           0       -4.659376   -1.768683   -1.532513
     10          8           0        1.419999   -1.004202   -1.367462
     11         40           0        3.085424   -2.169816   -1.470851
     12          8           0        0.864407    0.182462    1.403385
     13         40           0        2.170600   -0.933895    2.370732
     14          8           0        1.826917    2.098358   -0.922560
     15         40           0        3.670712    2.720262   -0.522944
     16          8           0       -6.276205    1.810285   -1.743032
     17          8           0       -5.514369    3.679424    0.064099
     18          8           0       -5.893511    1.070898    0.742311
     19          8           0       -3.739467   -2.033602    2.250955
     20          8           0       -4.301559    0.528484    2.995627
     21          8           0       -1.790998   -0.404719    3.244676
     22          8           0       -4.898853   -2.459062   -2.999626
     23          8           0       -6.070973   -0.993489   -1.107157
     24          8           0       -4.301380   -2.885710   -0.407888
     25          1           0       -6.377180   -0.324251   -1.741377
     26          1           0       -4.111989   -2.800464   -3.438127
     27          1           0       -4.062933   -2.622655    0.500306
     28          1           0       -5.004647    0.789874    2.366734
     29          1           0       -6.152832    0.213218    0.343954
     30          1           0       -6.165255    2.402417   -2.495246
     31          1           0       -4.710105    4.110271    0.373291
     32          1           0       -1.079418    0.019673    2.728174
     33          1           0       -4.334628   -2.329236    2.948887
     34          8           0        3.279883   -2.563522   -3.388988
     35          1           0        3.882965   -2.249199   -4.069663
     36          8           0        4.621826   -1.038600   -1.093178
     37          1           0        4.814674   -0.294037   -0.488332
     38          8           0        3.039638   -4.068035   -0.749154
     39          1           0        3.130003   -4.859210   -1.291476
     40          8           0        4.496127    1.236658    0.513046
     41          1           0        4.426036    0.994535    1.460553
     42          8           0        4.677419    2.968899   -2.180637
     43          1           0        5.031029    3.605803   -2.806024
     44          8           0        3.560167    4.342335    0.550634
     45          1           0        3.081658    5.053616    0.980616
     46          8           0        2.807087   -2.273795    1.028568
     47          1           0        2.858322   -3.246693    0.939683
     48          8           0        3.702835    0.213332    2.963252
     49          1           0        4.031407    0.471931    3.831209
     50          8           0        1.211368   -1.700862    3.873469
     51          1           0        0.259962   -1.588986    4.051067
 ---------------------------------------------------------------------
 Rotational constants (GHZ):           0.0861081           0.0376600           0.0357125
 General basis read from cards:  (5D, 7F)
 ======================================================================================================
                                       Pseudopotential Parameters
 ======================================================================================================
  Center     Atomic      Valence      Angular      Power
  Number     Number     Electrons     Momentum     of R      Exponent        Coefficient   SO-Coeffient
 ======================================================================================================
    1         14
                                   No pseudopotential on this center.
    2          8
                                   No pseudopotential on this center.
    3          8
                                   No pseudopotential on this center.
    4          8
                                   No pseudopotential on this center.
    5          8
                                   No pseudopotential on this center.
    6         40           12
                                      F and up 
                                                     0      645.9321873       -0.04258430    0.00000000
                                                     1      134.7547401      -20.22224090    0.00000000
                                                     2       42.3074619     -101.86951720    0.00000000
                                                     2       12.0003227      -41.61957840    0.00000000
                                                     2        4.1260454       -4.69861600    0.00000000
                                      S - F
                                                     0      117.6251862        2.79105590    0.00000000
                                                     1       22.9646089       41.94894590    0.00000000
                                                     2        4.5225298       67.72718660    0.00000000
                                      P - F
                                                     0       47.1953145        4.99111440    0.00000000
                                                     1       48.0356033       20.71931720    0.00000000
                                                     2       19.4541456      195.58677580    0.00000000
                                                     2        4.0512875       48.28771760    0.00000000
                                      D - F
                                                     0       79.9073983        3.00492260    0.00000000
                                                     1       45.8263798       25.93779890    0.00000000
                                                     2       26.9903522      125.12449340    0.00000000
                                                     2        9.6835718       70.76340220    0.00000000
                                                     2        2.7995666       15.04928220    0.00000000
    7         14
                                   No pseudopotential on this center.
    8         14
                                   No pseudopotential on this center.
    9         14
                                   No pseudopotential on this center.
   10          8
                                   No pseudopotential on this center.
   11         40           12
                                      F and up 
                                                     0      645.9321873       -0.04258430    0.00000000
                                                     1      134.7547401      -20.22224090    0.00000000
                                                     2       42.3074619     -101.86951720    0.00000000
                                                     2       12.0003227      -41.61957840    0.00000000
                                                     2        4.1260454       -4.69861600    0.00000000
                                      S - F
                                                     0      117.6251862        2.79105590    0.00000000
                                                     1       22.9646089       41.94894590    0.00000000
                                                     2        4.5225298       67.72718660    0.00000000
                                      P - F
                                                     0       47.1953145        4.99111440    0.00000000
                                                     1       48.0356033       20.71931720    0.00000000
                                                     2       19.4541456      195.58677580    0.00000000
                                                     2        4.0512875       48.28771760    0.00000000
                                      D - F
                                                     0       79.9073983        3.00492260    0.00000000
                                                     1       45.8263798       25.93779890    0.00000000
                                                     2       26.9903522      125.12449340    0.00000000
                                                     2        9.6835718       70.76340220    0.00000000
                                                     2        2.7995666       15.04928220    0.00000000
   12          8
                                   No pseudopotential on this center.
   13         40           12
                                      F and up 
                                                     0      645.9321873       -0.04258430    0.00000000
                                                     1      134.7547401      -20.22224090    0.00000000
                                                     2       42.3074619     -101.86951720    0.00000000
                                                     2       12.0003227      -41.61957840    0.00000000
                                                     2        4.1260454       -4.69861600    0.00000000
                                      S - F
                                                     0      117.6251862        2.79105590    0.00000000
                                                     1       22.9646089       41.94894590    0.00000000
                                                     2        4.5225298       67.72718660    0.00000000
                                      P - F
                                                     0       47.1953145        4.99111440    0.00000000
                                                     1       48.0356033       20.71931720    0.00000000
                                                     2       19.4541456      195.58677580    0.00000000
                                                     2        4.0512875       48.28771760    0.00000000
                                      D - F
                                                     0       79.9073983        3.00492260    0.00000000
                                                     1       45.8263798       25.93779890    0.00000000
                                                     2       26.9903522      125.12449340    0.00000000
                                                     2        9.6835718       70.76340220    0.00000000
                                                     2        2.7995666       15.04928220    0.00000000
   14          8
                                   No pseudopotential on this center.
   15         40           12
                                      F and up 
                                                     0      645.9321873       -0.04258430    0.00000000
                                                     1      134.7547401      -20.22224090    0.00000000
                                                     2       42.3074619     -101.86951720    0.00000000
                                                     2       12.0003227      -41.61957840    0.00000000
                                                     2        4.1260454       -4.69861600    0.00000000
                                      S - F
                                                     0      117.6251862        2.79105590    0.00000000
                                                     1       22.9646089       41.94894590    0.00000000
                                                     2        4.5225298       67.72718660    0.00000000
                                      P - F
                                                     0       47.1953145        4.99111440    0.00000000
                                                     1       48.0356033       20.71931720    0.00000000
                                                     2       19.4541456      195.58677580    0.00000000
                                                     2        4.0512875       48.28771760    0.00000000
                                      D - F
                                                     0       79.9073983        3.00492260    0.00000000
                                                     1       45.8263798       25.93779890    0.00000000
                                                     2       26.9903522      125.12449340    0.00000000
                                                     2        9.6835718       70.76340220    0.00000000
                                                     2        2.7995666       15.04928220    0.00000000
   16          8
                                   No pseudopotential on this center.
   17          8
                                   No pseudopotential on this center.
   18          8
                                   No pseudopotential on this center.
   19          8
                                   No pseudopotential on this center.
   20          8
                                   No pseudopotential on this center.
   21          8
                                   No pseudopotential on this center.
   22          8
                                   No pseudopotential on this center.
   23          8
                                   No pseudopotential on this center.
   24          8
                                   No pseudopotential on this center.
   25          1
                                   No pseudopotential on this center.
   26          1
                                   No pseudopotential on this center.
   27          1
                                   No pseudopotential on this center.
   28          1
                                   No pseudopotential on this center.
   29          1
                                   No pseudopotential on this center.
   30          1
                                   No pseudopotential on this center.
   31          1
                                   No pseudopotential on this center.
   32          1
                                   No pseudopotential on this center.
   33          1
                                   No pseudopotential on this center.
   34          8
                                   No pseudopotential on this center.
   35          1
                                   No pseudopotential on this center.
   36          8
                                   No pseudopotential on this center.
   37          1
                                   No pseudopotential on this center.
   38          8
                                   No pseudopotential on this center.
   39          1
                                   No pseudopotential on this center.
   40          8
                                   No pseudopotential on this center.
   41          1
                                   No pseudopotential on this center.
   42          8
                                   No pseudopotential on this center.
   43          1
                                   No pseudopotential on this center.
   44          8
                                   No pseudopotential on this center.
   45          1
                                   No pseudopotential on this center.
   46          8
                                   No pseudopotential on this center.
   47          1
                                   No pseudopotential on this center.
   48          8
                                   No pseudopotential on this center.
   49          1
                                   No pseudopotential on this center.
   50          8
                                   No pseudopotential on this center.
   51          1
                                   No pseudopotential on this center.
 ======================================================================================================
 There are   637 symmetry adapted cartesian basis functions of A   symmetry.
 There are   600 symmetry adapted basis functions of A   symmetry.
   600 basis functions,  1230 primitive gaussians,   637 cartesian basis functions
   161 alpha electrons      161 beta electrons
       nuclear repulsion energy      5625.3571131976 Hartrees.
 NAtoms=   51 NActive=   51 NUniq=   51 SFac= 1.00D+00 NAtFMM=   60 NAOKFM=F Big=F
 Integral buffers will be    131072 words long.
 Raffenetti 2 integral format.
 Two-electron integral symmetry is turned on.
 One-electron integrals computed using PRISM.
   1 Symmetry operations used in ECPInt.
 ECPInt:  NShTT=   21321 NPrTT=  126439 LenC2=   15282 LenP2D=   51269.
 LDataN:  DoStor=T MaxTD1= 5 Len=  102
 Number of processors reduced to  12 by ecpmxn.
 NBasis=   600 RedAO= T EigKep=  2.64D-03  NBF=   600
 NBsUse=   600 1.00D-06 EigRej= -1.00D+00 NBFU=   600
 Defaulting to unpruned grid for atomic number  40.
 Defaulting to unpruned grid for atomic number  40.
 Defaulting to unpruned grid for atomic number  40.
 ExpMin= 2.43D-02 ExpMax= 1.61D+04 ExpMxC= 2.43D+03 IAcc=3 IRadAn=         5 AccDes= 0.00D+00
 Harris functional with IExCor=  402 and IRadAn=       5 diagonalized for initial guess.
 HarFok:  IExCor=  402 AccDes= 0.00D+00 IRadAn=         5 IDoV= 1 UseB2=F ITyADJ=14
 ICtDFT=  3500011 ScaDFX=  1.000000  1.000000  1.000000  1.000000
 Defaulting to unpruned grid for atomic number  40.
 FoFCou: FMM=F IPFlag=           0 FMFlag=      100000 FMFlg1=           0
         NFxFlg=           0 DoJE=T BraDBF=F KetDBF=T FulRan=T
         wScrn=  0.000000 ICntrl=       500 IOpCl=  0 I1Cent=   200000004 NGrid=           0
         NMat0=    1 NMatS0=      1 NMatT0=    0 NMatD0=    1 NMtDS0=    0 NMtDT0=    0
 Petite list used in FoFCou.
 Requested convergence on RMS density matrix=1.00D-08 within 128 cycles.
 Requested convergence on MAX density matrix=1.00D-06.
 Requested convergence on             energy=1.00D-06.
 No special actions if energy rises.
 Defaulting to unpruned grid for atomic number  40.
 Defaulting to unpruned grid for atomic number  40.
 Defaulting to unpruned grid for atomic number  40.
 Defaulting to unpruned grid for atomic number  40.
 Defaulting to unpruned grid for atomic number  40.
 Defaulting to unpruned grid for atomic number  40.
 Defaulting to unpruned grid for atomic number  40.
 Defaulting to unpruned grid for atomic number  40.
 Defaulting to unpruned grid for atomic number  40.
 Defaulting to unpruned grid for atomic number  40.
 Defaulting to unpruned grid for atomic number  40.
 Defaulting to unpruned grid for atomic number  40.
 Defaulting to unpruned grid for atomic number  40.
 Defaulting to unpruned grid for atomic number  40.
 Defaulting to unpruned grid for atomic number  40.
 Defaulting to unpruned grid for atomic number  40.
 SCF Done:  E(RB3LYP) =  -3237.56420478     A.U. after   17 cycles
            NFock= 17  Conv=0.29D-08     -V/T= 2.0473

 **********************************************************************

            Population analysis using the SCF Density.

 **********************************************************************

 Orbital symmetries:
       Occupied  (A) (A) (A) (A) (A) (A) (A) (A) (A) (A) (A) (A)
                 (A) (A) (A) (A) (A) (A) (A) (A) (A) (A) (A) (A)
                 (A) (A) (A) (A) (A) (A) (A) (A) (A) (A) (A) (A)
                 (A) (A) (A) (A) (A) (A) (A) (A) (A) (A) (A) (A)
                 (A) (A) (A) (A) (A) (A) (A) (A) (A) (A) (A) (A)
                 (A) (A) (A) (A) (A) (A) (A) (A) (A) (A) (A) (A)
                 (A) (A) (A) (A) (A) (A) (A) (A) (A) (A) (A) (A)
                 (A) (A) (A) (A) (A) (A) (A) (A) (A) (A) (A) (A)
                 (A) (A) (A) (A) (A) (A) (A) (A) (A) (A) (A) (A)
                 (A) (A) (A) (A) (A) (A) (A) (A) (A) (A) (A) (A)
                 (A) (A) (A) (A) (A) (A) (A) (A) (A) (A) (A) (A)
                 (A) (A) (A) (A) (A) (A) (A) (A) (A) (A) (A) (A)
                 (A) (A) (A) (A) (A) (A) (A) (A) (A) (A) (A) (A)
                 (A) (A) (A) (A) (A)
       Virtual   (A) (A) (A) (A) (A) (A) (A) (A) (A) (A) (A) (A)
                 (A) (A) (A) (A) (A) (A) (A) (A) (A) (A) (A) (A)
                 (A) (A) (A) (A) (A) (A) (A) (A) (A) (A) (A) (A)
                 (A) (A) (A) (A) (A) (A) (A) (A) (A) (A) (A) (A)
                 (A) (A) (A) (A) (A) (A) (A) (A) (A) (A) (A) (A)
                 (A) (A) (A) (A) (A) (A) (A) (A) (A) (A) (A) (A)
                 (A) (A) (A) (A) (A) (A) (A) (A) (A) (A) (A) (A)
                 (A) (A) (A) (A) (A) (A) (A) (A) (A) (A) (A) (A)
                 (A) (A) (A) (A) (A) (A) (A) (A) (A) (A) (A) (A)
                 (A) (A) (A) (A) (A) (A) (A) (A) (A) (A) (A) (A)
                 (A) (A) (A) (A) (A) (A) (A) (A) (A) (A) (A) (A)
                 (A) (A) (A) (A) (A) (A) (A) (A) (A) (A) (A) (A)
                 (A) (A) (A) (A) (A) (A) (A) (A) (A) (A) (A) (A)
                 (A) (A) (A) (A) (A) (A) (A) (A) (A) (A) (A) (A)
                 (A) (A) (A) (A) (A) (A) (A) (A) (A) (A) (A) (A)
                 (A) (A) (A) (A) (A) (A) (A) (A) (A) (A) (A) (A)
                 (A) (A) (A) (A) (A) (A) (A) (A) (A) (A) (A) (A)
                 (A) (A) (A) (A) (A) (A) (A) (A) (A) (A) (A) (A)
                 (A) (A) (A) (A) (A) (A) (A) (A) (A) (A) (A) (A)
                 (A) (A) (A) (A) (A) (A) (A) (A) (A) (A) (A) (A)
                 (A) (A) (A) (A) (A) (A) (A) (A) (A) (A) (A) (A)
                 (A) (A) (A) (A) (A) (A) (A) (A) (A) (A) (A) (A)
                 (A) (A) (A) (A) (A) (A) (A) (A) (A) (A) (A) (A)
                 (A) (A) (A) (A) (A) (A) (A) (A) (A) (A) (A) (A)
                 (A) (A) (A) (A) (A) (A) (A) (A) (A) (A) (A) (A)
                 (A) (A) (A) (A) (A) (A) (A) (A) (A) (A) (A) (A)
                 (A) (A) (A) (A) (A) (A) (A) (A) (A) (A) (A) (A)
                 (A) (A) (A) (A) (A) (A) (A) (A) (A) (A) (A) (A)
                 (A) (A) (A) (A) (A) (A) (A) (A) (A) (A) (A) (A)
                 (A) (A) (A) (A) (A) (A) (A) (A) (A) (A) (A) (A)
                 (A) (A) (A) (A) (A) (A) (A) (A) (A) (A) (A) (A)
                 (A) (A) (A) (A) (A) (A) (A) (A) (A) (A) (A) (A)
                 (A) (A) (A) (A) (A) (A) (A) (A) (A) (A) (A) (A)
                 (A) (A) (A) (A) (A) (A) (A) (A) (A) (A) (A) (A)
                 (A) (A) (A) (A) (A) (A) (A) (A) (A) (A) (A) (A)
                 (A) (A) (A) (A) (A) (A) (A) (A) (A) (A) (A) (A)
                 (A) (A) (A) (A) (A) (A) (A)
 The electronic state is 1-A.
 Alpha  occ. eigenvalues --  -66.21975 -66.21770 -66.21147 -66.20119 -19.16975
 Alpha  occ. eigenvalues --  -19.16918 -19.16543 -19.16495 -19.16289 -19.16100
 Alpha  occ. eigenvalues --  -19.16054 -19.15708 -19.15658 -19.15646 -19.15446
 Alpha  occ. eigenvalues --  -19.15254 -19.14917 -19.14624 -19.14487 -19.14274
 Alpha  occ. eigenvalues --  -19.14226 -19.14150 -19.14132 -19.14102 -19.13353
 Alpha  occ. eigenvalues --  -19.13101 -19.12588 -19.12159 -19.11648  -5.36001
 Alpha  occ. eigenvalues --   -5.35922  -5.35347  -5.34328  -3.71964  -3.71949
 Alpha  occ. eigenvalues --   -3.71941  -3.71910  -3.71883  -3.71817  -3.71412
 Alpha  occ. eigenvalues --   -3.71262  -3.71187  -3.70322  -3.70275  -3.70203
 Alpha  occ. eigenvalues --   -2.08408  -2.06865  -2.06794  -2.05093  -1.29498
 Alpha  occ. eigenvalues --   -1.29004  -1.28662  -1.27930  -1.27702  -1.27644
 Alpha  occ. eigenvalues --   -1.27163  -1.27084  -1.26696  -1.25738  -1.25485
 Alpha  occ. eigenvalues --   -1.25141  -1.05180  -1.04143  -1.02990  -1.01809
 Alpha  occ. eigenvalues --   -1.01326  -1.01075  -1.00741  -0.99678  -0.99280
 Alpha  occ. eigenvalues --   -0.98620  -0.98526  -0.98430  -0.97830  -0.97544
 Alpha  occ. eigenvalues --   -0.96972  -0.96679  -0.95476  -0.94973  -0.94927
 Alpha  occ. eigenvalues --   -0.93914  -0.93692  -0.92102  -0.90877  -0.89480
 Alpha  occ. eigenvalues --   -0.88407  -0.61505  -0.59469  -0.58712  -0.55732
 Alpha  occ. eigenvalues --   -0.54311  -0.53401  -0.52208  -0.52001  -0.51457
 Alpha  occ. eigenvalues --   -0.51337  -0.51145  -0.50921  -0.50691  -0.50119
 Alpha  occ. eigenvalues --   -0.50042  -0.49420  -0.48872  -0.47780  -0.46776
 Alpha  occ. eigenvalues --   -0.45630  -0.45540  -0.44830  -0.42721  -0.41884
 Alpha  occ. eigenvalues --   -0.41284  -0.41141  -0.40401  -0.40215  -0.40041
 Alpha  occ. eigenvalues --   -0.39622  -0.39383  -0.39108  -0.38928  -0.38407
 Alpha  occ. eigenvalues --   -0.37949  -0.37495  -0.37284  -0.36999  -0.36785
 Alpha  occ. eigenvalues --   -0.36557  -0.36129  -0.35802  -0.35645  -0.35547
 Alpha  occ. eigenvalues --   -0.35445  -0.35204  -0.34991  -0.34899  -0.34812
 Alpha  occ. eigenvalues --   -0.34672  -0.34480  -0.34429  -0.34168  -0.34045
 Alpha  occ. eigenvalues --   -0.33820  -0.33486  -0.33330  -0.33122  -0.32982
 Alpha  occ. eigenvalues --   -0.32843  -0.32526  -0.32459  -0.32229  -0.31857
 Alpha  occ. eigenvalues --   -0.31713  -0.31539  -0.31384  -0.31117  -0.30973
 Alpha  occ. eigenvalues --   -0.30797  -0.30675  -0.30208  -0.29523  -0.29159
 Alpha  occ. eigenvalues --   -0.28636
 Alpha virt. eigenvalues --   -0.05275  -0.04819  -0.04400  -0.03595  -0.02885
 Alpha virt. eigenvalues --   -0.02731  -0.01967  -0.01631  -0.01342  -0.01161
 Alpha virt. eigenvalues --   -0.00708  -0.00604  -0.00370   0.00029   0.00500
 Alpha virt. eigenvalues --    0.00634   0.00914   0.01204   0.01456   0.01812
 Alpha virt. eigenvalues --    0.02323   0.02451   0.02713   0.02950   0.03172
 Alpha virt. eigenvalues --    0.03643   0.04077   0.04160   0.05002   0.05275
 Alpha virt. eigenvalues --    0.05571   0.05862   0.06205   0.06557   0.07136
 Alpha virt. eigenvalues --    0.08101   0.08239   0.08738   0.09206   0.10208
 Alpha virt. eigenvalues --    0.10411   0.11029   0.11880   0.12316   0.12883
 Alpha virt. eigenvalues --    0.13480   0.13901   0.14544   0.14847   0.15016
 Alpha virt. eigenvalues --    0.15351   0.16158   0.16299   0.16581   0.16820
 Alpha virt. eigenvalues --    0.17452   0.17905   0.18006   0.18198   0.18571
 Alpha virt. eigenvalues --    0.19227   0.19371   0.19713   0.20131   0.20223
 Alpha virt. eigenvalues --    0.20924   0.21293   0.21510   0.22087   0.22178
 Alpha virt. eigenvalues --    0.22476   0.22745   0.22839   0.23379   0.23972
 Alpha virt. eigenvalues --    0.24104   0.24411   0.24522   0.25032   0.25583
 Alpha virt. eigenvalues --    0.25765   0.26554   0.26783   0.27346   0.27442
 Alpha virt. eigenvalues --    0.28113   0.28642   0.29250   0.29796   0.30069
 Alpha virt. eigenvalues --    0.30495   0.30833   0.31113   0.31864   0.32665
 Alpha virt. eigenvalues --    0.32895   0.33323   0.34091   0.34254   0.35213
 Alpha virt. eigenvalues --    0.35945   0.36610   0.36775   0.37093   0.37810
 Alpha virt. eigenvalues --    0.38380   0.39501   0.40565   0.41200   0.41663
 Alpha virt. eigenvalues --    0.42100   0.44439   0.45292   0.46418   0.47024
 Alpha virt. eigenvalues --    0.49315   0.49726   0.51962   0.55522   0.56526
 Alpha virt. eigenvalues --    0.58176   0.59672   0.60564   0.64672   0.66538
 Alpha virt. eigenvalues --    0.66775   0.76727   0.76881   0.78428   0.79147
 Alpha virt. eigenvalues --    0.80209   0.80346   0.81102   0.82113   0.82237
 Alpha virt. eigenvalues --    0.83896   0.84208   0.84614   0.85481   0.86217
 Alpha virt. eigenvalues --    0.87153   0.87379   0.89033   0.89615   0.90377
 Alpha virt. eigenvalues --    0.90484   0.91754   0.92220   0.92485   0.93145
 Alpha virt. eigenvalues --    0.93262   0.94014   0.94414   0.94821   0.95385
 Alpha virt. eigenvalues --    0.95532   0.96418   0.96470   0.97158   0.97401
 Alpha virt. eigenvalues --    0.97558   0.97949   0.98216   0.98475   0.99054
 Alpha virt. eigenvalues --    0.99329   0.99701   1.00184   1.00910   1.01236
 Alpha virt. eigenvalues --    1.01930   1.02331   1.02907   1.03203   1.03909
 Alpha virt. eigenvalues --    1.04653   1.05051   1.05898   1.05965   1.06564
 Alpha virt. eigenvalues --    1.07023   1.07435   1.07969   1.08589   1.08965
 Alpha virt. eigenvalues --    1.09103   1.09653   1.10083   1.10823   1.11000
 Alpha virt. eigenvalues --    1.11922   1.12136   1.12920   1.13443   1.14048
 Alpha virt. eigenvalues --    1.14351   1.15513   1.16123   1.16834   1.16990
 Alpha virt. eigenvalues --    1.17470   1.18032   1.18606   1.19063   1.19172
 Alpha virt. eigenvalues --    1.19542   1.20101   1.20582   1.21112   1.21426
 Alpha virt. eigenvalues --    1.22047   1.22693   1.22805   1.24031   1.24477
 Alpha virt. eigenvalues --    1.25591   1.26609   1.26717   1.27538   1.27803
 Alpha virt. eigenvalues --    1.29102   1.29668   1.31111   1.31222   1.32210
 Alpha virt. eigenvalues --    1.33671   1.34326   1.35312   1.36499   1.37797
 Alpha virt. eigenvalues --    1.42538   1.43122   1.44597   1.45076   1.46937
 Alpha virt. eigenvalues --    1.47872   1.49015   1.50124   1.50670   1.51001
 Alpha virt. eigenvalues --    1.51667   1.52678   1.53601   1.54058   1.54259
 Alpha virt. eigenvalues --    1.54789   1.55125   1.55527   1.55944   1.56140
 Alpha virt. eigenvalues --    1.56958   1.57560   1.57654   1.58153   1.58377
 Alpha virt. eigenvalues --    1.58508   1.58659   1.59081   1.59652   1.60206
 Alpha virt. eigenvalues --    1.60454   1.61871   1.62051   1.62318   1.62460
 Alpha virt. eigenvalues --    1.63228   1.63596   1.63866   1.64199   1.64574
 Alpha virt. eigenvalues --    1.65564   1.65741   1.66074   1.66785   1.67028
 Alpha virt. eigenvalues --    1.67527   1.67906   1.68655   1.70218   1.70714
 Alpha virt. eigenvalues --    1.71309   1.71493   1.71895   1.72516   1.72670
 Alpha virt. eigenvalues --    1.73275   1.73490   1.73632   1.74961   1.75246
 Alpha virt. eigenvalues --    1.75493   1.76343   1.77055   1.77673   1.77733
 Alpha virt. eigenvalues --    1.78118   1.78272   1.78634   1.78842   1.79245
 Alpha virt. eigenvalues --    1.79530   1.80406   1.80559   1.81036   1.81471
 Alpha virt. eigenvalues --    1.81581   1.81954   1.82259   1.82823   1.82957
 Alpha virt. eigenvalues --    1.83497   1.83762   1.84217   1.84849   1.85210
 Alpha virt. eigenvalues --    1.85623   1.85708   1.86182   1.86535   1.86818
 Alpha virt. eigenvalues --    1.86979   1.87221   1.87699   1.87733   1.88702
 Alpha virt. eigenvalues --    1.89960   1.90033   1.90788   1.91165   1.92497
 Alpha virt. eigenvalues --    1.92690   1.93185   1.94536   1.95119   1.97203
 Alpha virt. eigenvalues --    1.97430   1.98156   1.99308   2.01190   2.01437
 Alpha virt. eigenvalues --    2.04227   2.05520   2.09045   2.09335   2.11823
 Alpha virt. eigenvalues --    2.15059   2.18884   2.31533   2.33714   2.33807
 Alpha virt. eigenvalues --    2.34414   2.34878   2.35044   2.35511   2.36271
 Alpha virt. eigenvalues --    2.36424   2.36986   2.37145   2.38062   2.39682
 Alpha virt. eigenvalues --    2.39932   2.40618   2.41132   2.42524   2.44547
 Alpha virt. eigenvalues --    2.45140   2.46483   2.47972   2.49729   2.52312
 Alpha virt. eigenvalues --    2.55872   2.56039   2.58456   2.59054   2.59520
 Alpha virt. eigenvalues --    2.60086   2.60708   2.61030   2.61437   2.61657
 Alpha virt. eigenvalues --    2.61892   2.62011   2.62409   2.62554   2.62879
 Alpha virt. eigenvalues --    2.62964   2.63117   2.63388   2.63530   2.64058
 Alpha virt. eigenvalues --    2.64163   2.64605   2.65099   2.65527   2.65681
 Alpha virt. eigenvalues --    2.65714   2.65930   2.67545   2.68529   2.69103
 Alpha virt. eigenvalues --    2.69752   2.69902   2.70691   2.71761   2.72967
 Alpha virt. eigenvalues --    2.74022   2.74688   2.74992   2.76606   2.77169
 Alpha virt. eigenvalues --    2.77620   2.77688   2.81691   2.82589   2.84871
 Alpha virt. eigenvalues --    2.86827   2.93499   3.40406   3.40715   3.41052
 Alpha virt. eigenvalues --    3.41486   3.42003   3.43362   3.43943   3.44924
 Alpha virt. eigenvalues --    3.45814   3.46040   3.47302   3.47699   3.49198
 Alpha virt. eigenvalues --    3.49810   3.52073   3.52564   3.54950   3.55279
 Alpha virt. eigenvalues --    4.71829   6.21467   6.61526   7.78417
          Condensed to atoms (all electrons):
 Mulliken charges:
               1
     1  Si   1.294259
     2  O   -0.647954
     3  O   -0.650757
     4  O   -0.650182
     5  O   -0.757538
     6  Zr   1.613349
     7  Si   1.117495
     8  Si   1.161017
     9  Si   1.135154
    10  O   -0.820220
    11  Zr   1.494941
    12  O   -0.844498
    13  Zr   1.594638
    14  O   -0.827780
    15  Zr   1.550787
    16  O   -0.626854
    17  O   -0.574131
    18  O   -0.666282
    19  O   -0.626932
    20  O   -0.611786
    21  O   -0.626416
    22  O   -0.578601
    23  O   -0.653043
    24  O   -0.618663
    25  H    0.354955
    26  H    0.334098
    27  H    0.367206
    28  H    0.369952
    29  H    0.365450
    30  H    0.337802
    31  H    0.336601
    32  H    0.360904
    33  H    0.343839
    34  O   -0.695228
    35  H    0.332490
    36  O   -0.706961
    37  H    0.365566
    38  O   -0.749634
    39  H    0.331353
    40  O   -0.763775
    41  H    0.371736
    42  O   -0.694191
    43  H    0.334081
    44  O   -0.699274
    45  H    0.335298
    46  O   -0.762492
    47  H    0.380843
    48  O   -0.741925
    49  H    0.340410
    50  O   -0.687065
    51  H    0.357959
 Sum of Mulliken charges =  -0.00000
 Mulliken charges with hydrogens summed into heavy atoms:
               1
     1  Si   1.294259
     2  O   -0.647954
     3  O   -0.650757
     4  O   -0.650182
     5  O   -0.757538
     6  Zr   1.613349
     7  Si   1.117495
     8  Si   1.161017
     9  Si   1.135154
    10  O   -0.820220
    11  Zr   1.494941
    12  O   -0.844498
    13  Zr   1.594638
    14  O   -0.827780
    15  Zr   1.550787
    16  O   -0.289052
    17  O   -0.237530
    18  O   -0.300833
    19  O   -0.283093
    20  O   -0.241834
    21  O   -0.265511
    22  O   -0.244503
    23  O   -0.298088
    24  O   -0.251457
    34  O   -0.362738
    36  O   -0.341395
    38  O   -0.418280
    40  O   -0.392039
    42  O   -0.360110
    44  O   -0.363976
    46  O   -0.381650
    48  O   -0.401515
    50  O   -0.329106
 Electronic spatial extent (au):  <R**2>=          25648.5945
 Charge=              0.0000 electrons
 Dipole moment (field-independent basis, Debye):
    X=              2.5442    Y=              4.3846    Z=              1.1302  Tot=              5.1937
 Quadrupole moment (field-independent basis, Debye-Ang):
   XX=           -296.4783   YY=           -257.8020   ZZ=           -261.0998
   XY=              3.0739   XZ=              8.7684   YZ=             -8.4335
 Traceless Quadrupole moment (field-independent basis, Debye-Ang):
   XX=            -24.6850   YY=             13.9914   ZZ=             10.6936
   XY=              3.0739   XZ=              8.7684   YZ=             -8.4335
 Octapole moment (field-independent basis, Debye-Ang**2):
  XXX=            338.3352  YYY=            104.7163  ZZZ=            -49.3218  XYY=            157.4701
  XXY=             56.5618  XXZ=            -11.5433  XZZ=            135.2049  YZZ=             15.1323
  YYZ=            -16.0028  XYZ=             61.5518
 Hexadecapole moment (field-independent basis, Debye-Ang**3):
 XXXX=         -23433.7359 YYYY=          -5723.9652 ZZZZ=          -5016.1447 XXXY=            184.9782
 XXXZ=              5.0932 YYYX=             53.0679 YYYZ=             32.0733 ZZZX=             85.3825
 ZZZY=            -75.9902 XXYY=          -4760.3361 XXZZ=          -3969.2198 YYZZ=          -1741.3909
 XXYZ=           -533.0765 YYXZ=           -189.9032 ZZXY=            163.3902
 N-N= 5.625357113198D+03 E-N=-1.885147268211D+04  KE= 3.091268669879D+03
   1 Symmetry operations used in ECPInt.
 ECPInt:  NShTT=   21321 NPrTT=  126439 LenC2=   15282 LenP2D=   51269.
 LDataN:  DoStor=T MaxTD1= 6 Len=  172
 Number of processors reduced to  14 by ecpmxn.
 Calling FoFJK, ICntrl=      2127 FMM=F ISym2X=0 I1Cent= 0 IOpClX= 0 NMat=1 NMatS=1 NMatT=0.
 Defaulting to unpruned grid for atomic number  40.
 Defaulting to unpruned grid for atomic number  40.
 Defaulting to unpruned grid for atomic number  40.
 Defaulting to unpruned grid for atomic number  40.
 Defaulting to unpruned grid for atomic number  40.
 Defaulting to unpruned grid for atomic number  40.
 Defaulting to unpruned grid for atomic number  40.
 Defaulting to unpruned grid for atomic number  40.
 Defaulting to unpruned grid for atomic number  40.
 Defaulting to unpruned grid for atomic number  40.
 Defaulting to unpruned grid for atomic number  40.
 Defaulting to unpruned grid for atomic number  40.
 Defaulting to unpruned grid for atomic number  40.
 Defaulting to unpruned grid for atomic number  40.
 Defaulting to unpruned grid for atomic number  40.
 Defaulting to unpruned grid for atomic number  40.
 ***** Axes restored to original set *****
 -------------------------------------------------------------------
 Center     Atomic                   Forces (Hartrees/Bohr)
 Number     Number              X              Y              Z
 -------------------------------------------------------------------
      1       14           0.001542983   -0.000438428    0.001728714
      2        8          -0.000223929    0.000274983   -0.000457136
      3        8          -0.000048108    0.000104741   -0.000209017
      4        8           0.000004397   -0.000010405   -0.000247636
      5        8           0.000709385    0.000095198   -0.000662083
      6       40          -0.001814874   -0.000129632    0.001150540
      7       14           0.000835269   -0.000143253   -0.000542714
      8       14           0.000260621   -0.000214711    0.000094628
      9       14           0.000164758    0.000111969    0.000250610
     10        8           0.000397788   -0.000425263   -0.000150085
     11       40          -0.000228134    0.000350640   -0.000191060
     12        8           0.001034158   -0.001834813   -0.000304288
     13       40          -0.002228290    0.004415505   -0.004969767
     14        8           0.000447400    0.000344788   -0.000053985
     15       40          -0.000361124   -0.000085782   -0.000033604
     16        8          -0.000073864    0.000015495   -0.000069440
     17        8          -0.000038066    0.000073731   -0.000004147
     18        8          -0.000103152    0.000061636   -0.000079388
     19        8          -0.000238521   -0.000017091   -0.000088583
     20        8          -0.000156658    0.000089401    0.000074105
     21        8           0.007430580    0.001294462   -0.003475858
     22        8          -0.000025965   -0.000036380   -0.000088211
     23        8          -0.000086164   -0.000014528   -0.000029244
     24        8          -0.000069437   -0.000062378   -0.000142182
     25        1          -0.000018777   -0.000027433    0.000010774
     26        1           0.000000357    0.000015601    0.000019931
     27        1           0.000079610    0.000092403    0.000142896
     28        1           0.000139982   -0.000079932    0.000046890
     29        1           0.000073358    0.000040275    0.000005451
     30        1           0.000006977   -0.000006729    0.000025186
     31        1           0.000005015   -0.000045460    0.000014586
     32        1          -0.002991923   -0.001882703    0.003455542
     33        1           0.000140979    0.000061015    0.000038704
     34        8          -0.000005791   -0.000031157   -0.000000402
     35        1           0.000003320    0.000005974   -0.000001014
     36        8           0.000039561   -0.000050075    0.000055262
     37        1          -0.000029159    0.000052373   -0.000019151
     38        8          -0.000027682   -0.000070155    0.000130766
     39        1           0.000004895   -0.000002798    0.000000603
     40        8           0.000140965   -0.000124101    0.000159249
     41        1           0.000015154    0.000077919   -0.000172950
     42        8           0.000041501    0.000024870   -0.000055223
     43        1          -0.000007559   -0.000009229    0.000009218
     44        8           0.000034966    0.000050498    0.000043290
     45        1          -0.000013245   -0.000007470   -0.000011169
     46        8          -0.000143577    0.000033784    0.000420491
     47        1           0.000071628   -0.000069825   -0.000147568
     48        8          -0.000142943   -0.000240168    0.000204972
     49        1           0.000076654    0.000080920   -0.000052346
     50        8          -0.007623716    0.000624244    0.002883877
     51        1           0.002998397   -0.002332525    0.001291963
 -------------------------------------------------------------------
 Cartesian Forces:  Max     0.007623716 RMS     0.001264638

 GradGradGradGradGradGradGradGradGradGradGradGradGradGradGradGradGradGrad
 Berny optimization.
 FormGI is forming the generalized inverse of G from B-inverse, IUseBI=4.
 Internal  Forces:  Max     0.042435742 RMS     0.004258746
 Search for a local minimum.
 Step number   1 out of a maximum of  229
 All quantities printed in internal units (Hartrees-Bohrs-Radians)
 Mixed Optimization -- RFO/linear search
 Second derivative matrix not updated -- first step.
 ITU=  0
     Eigenvalues ---    0.00230   0.00230   0.00230   0.00230   0.00230
     Eigenvalues ---    0.00230   0.00230   0.00230   0.00230   0.00230
     Eigenvalues ---    0.00230   0.00230   0.00230   0.00230   0.00230
     Eigenvalues ---    0.00230   0.03447   0.03470   0.03516   0.03601
     Eigenvalues ---    0.03614   0.03629   0.03654   0.03686   0.03816
     Eigenvalues ---    0.03823   0.03827   0.03839   0.03923   0.03964
     Eigenvalues ---    0.04008   0.04039   0.06239   0.08354   0.08564
     Eigenvalues ---    0.08974   0.09448   0.10123   0.10678   0.11232
     Eigenvalues ---    0.11369   0.11507   0.11595   0.11636   0.11773
     Eigenvalues ---    0.11825   0.11923   0.12003   0.12146   0.12566
     Eigenvalues ---    0.12661   0.12746   0.12781   0.12915   0.12948
     Eigenvalues ---    0.13420   0.16000   0.16000   0.16000   0.16000
     Eigenvalues ---    0.16000   0.16000   0.16000   0.16000   0.16000
     Eigenvalues ---    0.16000   0.16000   0.16000   0.16000   0.16000
     Eigenvalues ---    0.16000   0.16000   0.16000   0.16000   0.16475
     Eigenvalues ---    0.16652   0.16973   0.17555   0.17903   0.18060
     Eigenvalues ---    0.18629   0.18751   0.19259   0.19512   0.19625
     Eigenvalues ---    0.19663   0.19719   0.19731   0.19849   0.20192
     Eigenvalues ---    0.20247   0.20296   0.20320   0.20376   0.20393
     Eigenvalues ---    0.20422   0.20645   0.20651   0.20806   0.20824
     Eigenvalues ---    0.20868   0.21021   0.21050   0.21076   0.21270
     Eigenvalues ---    0.21906   0.25000   0.25000   0.25000   0.25000
     Eigenvalues ---    0.25000   0.25000   0.40115   0.40361   0.40848
     Eigenvalues ---    0.41777   0.41931   0.42098   0.42374   0.42741
     Eigenvalues ---    0.44274   0.44356   0.44406   0.44546   0.45586
     Eigenvalues ---    0.46106   0.46669   0.47064   0.51271   0.51295
     Eigenvalues ---    0.51607   0.51683   0.51718   0.52103   0.52343
     Eigenvalues ---    0.52511   0.53065   0.54681   0.54684   0.54738
     Eigenvalues ---    0.54744   0.54756   0.54764   0.55004   0.55451
     Eigenvalues ---    0.556781000.000001000.000001000.000001000.00000
     Eigenvalues --- 1000.000001000.000001000.000001000.000001000.00000
     Eigenvalues --- 1000.000001000.000001000.000001000.000001000.00000
     Eigenvalues --- 1000.000001000.000001000.000001000.000001000.00000
     Eigenvalues --- 1000.000001000.000001000.000001000.000001000.00000
     Eigenvalues --- 1000.000001000.000001000.000001000.000001000.00000
     Eigenvalues --- 1000.000001000.000001000.000001000.000001000.00000
     Eigenvalues --- 1000.000001000.000001000.000001000.000001000.00000
     Eigenvalues --- 1000.000001000.000001000.000001000.000001000.00000
     Eigenvalues --- 1000.000001000.000001000.000001000.000001000.00000
     Eigenvalues --- 1000.000001000.000001000.000001000.000001000.00000
     Eigenvalues --- 1000.000001000.000001000.000001000.000001000.00000
     Eigenvalues --- 1000.000001000.000001000.000001000.000001000.00000
     Eigenvalues --- 1000.000001000.000001000.000001000.000001000.00000
     Eigenvalues --- 1000.000001000.000001000.000001000.00000
 RFO step:  Lambda=-1.31167698D-02 EMin= 2.30000000D-03
 Linear search not attempted -- first point.
 Iteration  1 RMS(Cart)=  0.28859157 RMS(Int)=  0.01025847
 Iteration  2 RMS(Cart)=  0.09294683 RMS(Int)=  0.00078384
 Iteration  3 RMS(Cart)=  0.00183702 RMS(Int)=  0.00017093
 Iteration  4 RMS(Cart)=  0.00000121 RMS(Int)=  0.00017093
 Iteration  5 RMS(Cart)=  0.00000000 RMS(Int)=  0.00017093
 Iteration  1 RMS(Cart)=  0.00000000 RMS(Int)=  0.00000000
 Variable       Old X    -DE/DX   Delta X   Delta X   Delta X     New X
                                 (Linear)    (Quad)   (Total)
    R1        3.09828  -0.00039   0.00000  -0.00085  -0.00085   3.09743
    R2        3.12499  -0.00002   0.00000  -0.00006  -0.00006   3.12493
    R3        3.09671  -0.00002   0.00000  -0.00005  -0.00005   3.09666
    R4        3.06649  -0.00578   0.00000  -0.01195  -0.01195   3.05455
    R5        3.07712  -0.00131   0.00000  -0.00275  -0.00275   3.07437
    R6        3.11691  -0.00014   0.00000  -0.00032  -0.00032   3.11659
    R7        3.14118  -0.00006   0.00000  -0.00015  -0.00015   3.14103
    R8        3.80050  -0.00712   0.00000  -0.03775  -0.03775   3.76275
    R9        3.64783   0.00027   0.00000   0.00118   0.00118   3.64901
   R10        3.82475  -0.00179   0.00000  -0.00981  -0.00981   3.81495
   R11        3.72226   0.00041   0.00000   0.00197   0.00197   3.72422
   R12        3.15098  -0.00001   0.00000  -0.00002  -0.00002   3.15096
   R13        3.08301   0.00007   0.00000   0.00014   0.00014   3.08315
   R14        3.12149   0.00383   0.00000   0.00876   0.00876   3.13025
   R15        3.12908   0.00007   0.00000   0.00017   0.00017   3.12925
   R16        3.09506   0.00003   0.00000   0.00007   0.00007   3.09513
   R17        3.12711  -0.00011   0.00000  -0.00025  -0.00025   3.12686
   R18        3.09730   0.00007   0.00000   0.00016   0.00016   3.09746
   R19        3.14766   0.00006   0.00000   0.00015   0.00015   3.14781
   R20        3.07084  -0.00002   0.00000  -0.00004  -0.00004   3.07081
   R21        3.84641  -0.00034   0.00000  -0.00192  -0.00192   3.84449
   R22        3.71852   0.00001   0.00000   0.00003   0.00003   3.71856
   R23        3.67542   0.00001   0.00000   0.00006   0.00006   3.67548
   R24        3.83860   0.00012   0.00000   0.00065   0.00065   3.83925
   R25        3.72624  -0.00641   0.00000  -0.03078  -0.03078   3.69546
   R26        3.78033  -0.00018   0.00000  -0.00092  -0.00092   3.77940
   R27        3.78651  -0.00011   0.00000  -0.00057  -0.00057   3.78595
   R28        3.66752   0.00609   0.00000   0.02698   0.02698   3.69450
   R29        3.75387  -0.00017   0.00000  -0.00085  -0.00085   3.75302
   R30        3.75845   0.00010   0.00000   0.00049   0.00049   3.75894
   R31        3.69499   0.00006   0.00000   0.00027   0.00027   3.69526
   R32        3.68177   0.00005   0.00000   0.00024   0.00024   3.68201
   R33        1.82117  -0.00002   0.00000  -0.00004  -0.00004   1.82112
   R34        1.82049  -0.00001   0.00000  -0.00002  -0.00002   1.82047
   R35        1.85304  -0.00006   0.00000  -0.00011  -0.00011   1.85293
   R36        1.82114  -0.00007   0.00000  -0.00012  -0.00012   1.82101
   R37        1.84977  -0.00015   0.00000  -0.00029  -0.00029   1.84948
   R38        1.84500  -0.00488   0.00000  -0.00914  -0.00914   1.83586
   R39        1.82042  -0.00002   0.00000  -0.00003  -0.00003   1.82039
   R40        1.83593  -0.00002   0.00000  -0.00003  -0.00003   1.83590
   R41        1.84272   0.00018   0.00000   0.00034   0.00034   1.84306
   R42        1.81829   0.00000   0.00000   0.00001   0.00001   1.81830
   R43        1.84904   0.00002   0.00000   0.00004   0.00004   1.84908
   R44        1.82066   0.00000   0.00000   0.00000   0.00000   1.82066
   R45        1.85281  -0.00019   0.00000  -0.00035  -0.00035   1.85245
   R46        1.81433  -0.00001   0.00000  -0.00003  -0.00003   1.81430
   R47        1.81234  -0.00000   0.00000  -0.00001  -0.00001   1.81233
   R48        1.84870   0.00008   0.00000   0.00016   0.00016   1.84886
   R49        1.82060   0.00001   0.00000   0.00001   0.00001   1.82062
   R50        1.84113  -0.00285   0.00000  -0.00530  -0.00530   1.83584
    A1        1.89403   0.00700   0.00000   0.03355   0.03342   1.92746
    A2        1.88617   0.00265   0.00000   0.00917   0.00873   1.89490
    A3        1.87938  -0.01597   0.00000  -0.09247  -0.09230   1.78709
    A4        1.91364  -0.00230   0.00000   0.00918   0.00846   1.92210
    A5        1.92354   0.00335   0.00000   0.01753   0.01749   1.94102
    A6        1.96515   0.00520   0.00000   0.02198   0.02132   1.98647
    A7        2.84348   0.01975   0.00000   0.07507   0.07507   2.91855
    A8        2.31720  -0.00005   0.00000  -0.00020  -0.00020   2.31700
    A9        2.35610  -0.00050   0.00000  -0.00190  -0.00190   2.35420
   A10        2.48336  -0.04244   0.00000   0.00000   0.00000   2.48336
   A11        1.98022   0.00301   0.00000   0.01764   0.01655   1.99677
   A12        1.98271  -0.01777   0.00000  -0.11264  -0.11240   1.87030
   A13        1.99112   0.00571   0.00000   0.03171   0.03098   2.02210
   A14        1.77332   0.00588   0.00000   0.02221   0.02168   1.79500
   A15        1.88957  -0.00245   0.00000   0.01726   0.01611   1.90568
   A16        1.82833   0.00594   0.00000   0.02537   0.02524   1.85357
   A17        1.81235   0.00030   0.00000  -0.00005  -0.00008   1.81227
   A18        1.98544   0.00102   0.00000   0.00596   0.00597   1.99141
   A19        1.86767  -0.00226   0.00000  -0.01273  -0.01274   1.85493
   A20        1.94580  -0.00041   0.00000   0.00045   0.00044   1.94624
   A21        1.92845  -0.00029   0.00000  -0.00253  -0.00256   1.92590
   A22        1.92030   0.00146   0.00000   0.00775   0.00776   1.92806
   A23        1.94596  -0.00001   0.00000  -0.00002  -0.00002   1.94594
   A24        1.88055  -0.00001   0.00000  -0.00001  -0.00001   1.88054
   A25        1.93311   0.00008   0.00000   0.00048   0.00048   1.93360
   A26        1.93173  -0.00001   0.00000  -0.00019  -0.00019   1.93155
   A27        1.82723  -0.00002   0.00000  -0.00009  -0.00009   1.82714
   A28        1.94617  -0.00003   0.00000  -0.00017  -0.00017   1.94599
   A29        1.88532  -0.00001   0.00000  -0.00006  -0.00006   1.88526
   A30        1.89442   0.00015   0.00000   0.00080   0.00080   1.89522
   A31        1.95715  -0.00011   0.00000  -0.00052  -0.00052   1.95663
   A32        1.87632  -0.00007   0.00000  -0.00030  -0.00030   1.87602
   A33        1.94135   0.00006   0.00000   0.00016   0.00016   1.94151
   A34        1.90697  -0.00002   0.00000  -0.00006  -0.00006   1.90691
   A35        2.53226  -0.00027   0.00000  -0.00101  -0.00101   2.53125
   A36        1.81826   0.00008   0.00000   0.00074   0.00074   1.81900
   A37        1.87907  -0.00000   0.00000  -0.00026  -0.00026   1.87881
   A38        2.09284  -0.00010   0.00000  -0.00073  -0.00073   2.09211
   A39        1.80040   0.00002   0.00000   0.00046   0.00046   1.80086
   A40        1.73309   0.00004   0.00000   0.00058   0.00058   1.73367
   A41        2.08556   0.00000   0.00000  -0.00024  -0.00024   2.08532
   A42        2.29330   0.01401   0.00000   0.05323   0.05323   2.34653
   A43        1.83467   0.00064   0.00000   0.00276   0.00274   1.83741
   A44        1.90442   0.00043   0.00000   0.00288   0.00287   1.90730
   A45        1.85062  -0.00134   0.00000  -0.00863  -0.00863   1.84199
   A46        1.91621  -0.00015   0.00000   0.00160   0.00159   1.91780
   A47        1.99551  -0.00023   0.00000  -0.00191  -0.00191   1.99360
   A48        1.95546   0.00065   0.00000   0.00314   0.00315   1.95861
   A49        2.44669   0.00041   0.00000   0.00154   0.00154   2.44823
   A50        1.83015   0.00019   0.00000   0.00129   0.00129   1.83145
   A51        1.92532  -0.00006   0.00000  -0.00035  -0.00035   1.92497
   A52        1.89530  -0.00002   0.00000   0.00006   0.00006   1.89535
   A53        1.89947  -0.00010   0.00000  -0.00060  -0.00060   1.89887
   A54        1.93645  -0.00001   0.00000   0.00001   0.00001   1.93646
   A55        1.97198   0.00001   0.00000  -0.00029  -0.00029   1.97168
   A56        2.03455  -0.00002   0.00000  -0.00014  -0.00014   2.03441
   A57        2.01642  -0.00007   0.00000  -0.00040  -0.00040   2.01602
   A58        1.93923  -0.00004   0.00000  -0.00024  -0.00024   1.93899
   A59        2.03937  -0.00015   0.00000  -0.00087  -0.00087   2.03850
   A60        1.98603  -0.00012   0.00000  -0.00071  -0.00071   1.98533
   A61        1.92108   0.00129   0.00000   0.00743   0.00743   1.92851
[...]
     49          1           0        3.740781    0.486130    3.911155
     50          8           0        0.957236   -1.732396    3.778142
     51          1           0       -0.001648   -1.616233    3.905835
 ---------------------------------------------------------------------
 Rotational constants (GHZ):           0.0865872           0.0384622           0.0361051

 **********************************************************************

            Population analysis using the SCF Density.

 **********************************************************************

 Orbital symmetries:
       Occupied  (A) (A) (A) (A) (A) (A) (A) (A) (A) (A) (A) (A)
                 (A) (A) (A) (A) (A) (A) (A) (A) (A) (A) (A) (A)
                 (A) (A) (A) (A) (A) (A) (A) (A) (A) (A) (A) (A)
                 (A) (A) (A) (A) (A) (A) (A) (A) (A) (A) (A) (A)
                 (A) (A) (A) (A) (A) (A) (A) (A) (A) (A) (A) (A)
                 (A) (A) (A) (A) (A) (A) (A) (A) (A) (A) (A) (A)
                 (A) (A) (A) (A) (A) (A) (A) (A) (A) (A) (A) (A)
                 (A) (A) (A) (A) (A) (A) (A) (A) (A) (A) (A) (A)
                 (A) (A) (A) (A) (A) (A) (A) (A) (A) (A) (A) (A)
                 (A) (A) (A) (A) (A) (A) (A) (A) (A) (A) (A) (A)
                 (A) (A) (A) (A) (A) (A) (A) (A) (A) (A) (A) (A)
                 (A) (A) (A) (A) (A) (A) (A) (A) (A) (A) (A) (A)
                 (A) (A) (A) (A) (A) (A) (A) (A) (A) (A) (A) (A)
                 (A) (A) (A) (A) (A)
       Virtual   (A) (A) (A) (A) (A) (A) (A) (A) (A) (A) (A) (A)
                 (A) (A) (A) (A) (A) (A) (A) (A) (A) (A) (A) (A)
                 (A) (A) (A) (A) (A) (A) (A) (A) (A) (A) (A) (A)
                 (A) (A) (A) (A) (A) (A) (A) (A) (A) (A) (A) (A)
                 (A) (A) (A) (A) (A) (A) (A) (A) (A) (A) (A) (A)
                 (A) (A) (A) (A) (A) (A) (A) (A) (A) (A) (A) (A)
                 (A) (A) (A) (A) (A) (A) (A) (A) (A) (A) (A) (A)
                 (A) (A) (A) (A) (A) (A) (A) (A) (A) (A) (A) (A)
                 (A) (A) (A) (A) (A) (A) (A) (A) (A) (A) (A) (A)
                 (A) (A) (A) (A) (A) (A) (A) (A) (A) (A) (A) (A)
                 (A) (A) (A) (A) (A) (A) (A) (A) (A) (A) (A) (A)
                 (A) (A) (A) (A) (A) (A) (A) (A) (A) (A) (A) (A)
                 (A) (A) (A) (A) (A) (A) (A) (A) (A) (A) (A) (A)
                 (A) (A) (A) (A) (A) (A) (A) (A) (A) (A) (A) (A)
                 (A) (A) (A) (A) (A) (A) (A) (A) (A) (A) (A) (A)
                 (A) (A) (A) (A) (A) (A) (A) (A) (A) (A) (A) (A)
                 (A) (A) (A) (A) (A) (A) (A) (A) (A) (A) (A) (A)
                 (A) (A) (A) (A) (A) (A) (A) (A) (A) (A) (A) (A)
                 (A) (A) (A) (A) (A) (A) (A) (A) (A) (A) (A) (A)
                 (A) (A) (A) (A) (A) (A) (A) (A) (A) (A) (A) (A)
                 (A) (A) (A) (A) (A) (A) (A) (A) (A) (A) (A) (A)
                 (A) (A) (A) (A) (A) (A) (A) (A) (A) (A) (A) (A)
                 (A) (A) (A) (A) (A) (A) (A) (A) (A) (A) (A) (A)
                 (A) (A) (A) (A) (A) (A) (A) (A) (A) (A) (A) (A)
                 (A) (A) (A) (A) (A) (A) (A) (A) (A) (A) (A) (A)
                 (A) (A) (A) (A) (A) (A) (A) (A) (A) (A) (A) (A)
                 (A) (A) (A) (A) (A) (A) (A) (A) (A) (A) (A) (A)
                 (A) (A) (A) (A) (A) (A) (A) (A) (A) (A) (A) (A)
                 (A) (A) (A) (A) (A) (A) (A) (A) (A) (A) (A) (A)
                 (A) (A) (A) (A) (A) (A) (A) (A) (A) (A) (A) (A)
                 (A) (A) (A) (A) (A) (A) (A) (A) (A) (A) (A) (A)
                 (A) (A) (A) (A) (A) (A) (A) (A) (A) (A) (A) (A)
                 (A) (A) (A) (A) (A) (A) (A) (A) (A) (A) (A) (A)
                 (A) (A) (A) (A) (A) (A) (A) (A) (A) (A) (A) (A)
                 (A) (A) (A) (A) (A) (A) (A) (A) (A) (A) (A) (A)
                 (A) (A) (A) (A) (A) (A) (A) (A) (A) (A) (A) (A)
                 (A) (A) (A) (A) (A) (A) (A)
 The electronic state is 1-A.
 Alpha  occ. eigenvalues --  -66.22070 -66.21824 -66.21311 -66.20196 -19.17017
 Alpha  occ. eigenvalues --  -19.17009 -19.16411 -19.16355 -19.16103 -19.16016
 Alpha  occ. eigenvalues --  -19.15916 -19.15813 -19.15725 -19.15713 -19.15537
 Alpha  occ. eigenvalues --  -19.15301 -19.14991 -19.14695 -19.14574 -19.14324
 Alpha  occ. eigenvalues --  -19.14314 -19.14290 -19.14279 -19.14153 -19.13407
 Alpha  occ. eigenvalues --  -19.13195 -19.12588 -19.12131 -19.11647  -5.36056
 Alpha  occ. eigenvalues --   -5.36028  -5.35503  -5.34405  -3.72058  -3.72020
 Alpha  occ. eigenvalues --   -3.71995  -3.71984  -3.71965  -3.71924  -3.71569
 Alpha  occ. eigenvalues --   -3.71417  -3.71345  -3.70397  -3.70354  -3.70280
 Alpha  occ. eigenvalues --   -2.08283  -2.06970  -2.06843  -2.05094  -1.29342
 Alpha  occ. eigenvalues --   -1.28950  -1.28541  -1.28009  -1.27785  -1.27721
 Alpha  occ. eigenvalues --   -1.27213  -1.27201  -1.26763  -1.25739  -1.25483
 Alpha  occ. eigenvalues --   -1.25152  -1.05263  -1.04275  -1.03072  -1.01898
 Alpha  occ. eigenvalues --   -1.01408  -1.01125  -1.00936  -0.99752  -0.99467
 Alpha  occ. eigenvalues --   -0.98734  -0.98516  -0.98353  -0.97928  -0.97433
 Alpha  occ. eigenvalues --   -0.96728  -0.96331  -0.95517  -0.95127  -0.95006
 Alpha  occ. eigenvalues --   -0.93901  -0.93677  -0.92099  -0.91256  -0.89550
 Alpha  occ. eigenvalues --   -0.88456  -0.61670  -0.59573  -0.58774  -0.55890
 Alpha  occ. eigenvalues --   -0.54346  -0.53500  -0.52276  -0.52124  -0.51431
 Alpha  occ. eigenvalues --   -0.51390  -0.51072  -0.50994  -0.50696  -0.50199
 Alpha  occ. eigenvalues --   -0.50166  -0.49101  -0.48913  -0.47756  -0.46767
 Alpha  occ. eigenvalues --   -0.45789  -0.45632  -0.44790  -0.42848  -0.41967
 Alpha  occ. eigenvalues --   -0.41546  -0.41321  -0.40592  -0.40436  -0.40161
 Alpha  occ. eigenvalues --   -0.39705  -0.39527  -0.39188  -0.38997  -0.38436
 Alpha  occ. eigenvalues --   -0.37875  -0.37530  -0.37342  -0.37127  -0.36894
 Alpha  occ. eigenvalues --   -0.36645  -0.36179  -0.35952  -0.35739  -0.35633
 Alpha  occ. eigenvalues --   -0.35456  -0.35193  -0.35081  -0.34899  -0.34848
 Alpha  occ. eigenvalues --   -0.34654  -0.34318  -0.34244  -0.34077  -0.33999
 Alpha  occ. eigenvalues --   -0.33810  -0.33493  -0.33398  -0.33141  -0.33039
 Alpha  occ. eigenvalues --   -0.32881  -0.32597  -0.32549  -0.32252  -0.31960
 Alpha  occ. eigenvalues --   -0.31822  -0.31618  -0.31499  -0.31162  -0.31038
 Alpha  occ. eigenvalues --   -0.30836  -0.30724  -0.30231  -0.29540  -0.29148
 Alpha  occ. eigenvalues --   -0.28613
 Alpha virt. eigenvalues --   -0.05245  -0.04761  -0.04435  -0.03457  -0.02879
 Alpha virt. eigenvalues --   -0.02713  -0.01938  -0.01633  -0.01345  -0.01063
 Alpha virt. eigenvalues --   -0.00672  -0.00629  -0.00395   0.00041   0.00502
 Alpha virt. eigenvalues --    0.00631   0.00886   0.01402   0.01516   0.01780
 Alpha virt. eigenvalues --    0.02272   0.02444   0.02745   0.02888   0.03250
 Alpha virt. eigenvalues --    0.03738   0.04101   0.04178   0.04997   0.05423
 Alpha virt. eigenvalues --    0.05786   0.05837   0.06210   0.06494   0.07107
 Alpha virt. eigenvalues --    0.08074   0.08309   0.08689   0.09610   0.10197
 Alpha virt. eigenvalues --    0.10468   0.11222   0.11695   0.12430   0.12835
 Alpha virt. eigenvalues --    0.13435   0.13927   0.14568   0.15008   0.15243
 Alpha virt. eigenvalues --    0.15888   0.16299   0.16482   0.16617   0.16956
 Alpha virt. eigenvalues --    0.17531   0.17932   0.18144   0.18471   0.18641
 Alpha virt. eigenvalues --    0.19243   0.19383   0.19778   0.20200   0.20712
 Alpha virt. eigenvalues --    0.20867   0.21235   0.21494   0.22103   0.22207
 Alpha virt. eigenvalues --    0.22507   0.22822   0.22987   0.23295   0.24040
 Alpha virt. eigenvalues --    0.24192   0.24432   0.24660   0.24986   0.25609
 Alpha virt. eigenvalues --    0.25866   0.26508   0.26749   0.27465   0.27587
 Alpha virt. eigenvalues --    0.28348   0.28791   0.29173   0.29942   0.30002
 Alpha virt. eigenvalues --    0.30323   0.31048   0.31199   0.31959   0.32559
 Alpha virt. eigenvalues --    0.33349   0.33580   0.34132   0.34551   0.35209
 Alpha virt. eigenvalues --    0.35895   0.36484   0.36833   0.37400   0.37716
 Alpha virt. eigenvalues --    0.38234   0.39562   0.40677   0.41279   0.41919
 Alpha virt. eigenvalues --    0.42210   0.44549   0.44787   0.46511   0.47011
 Alpha virt. eigenvalues --    0.49249   0.49972   0.51949   0.55218   0.56384
 Alpha virt. eigenvalues --    0.58098   0.59642   0.60553   0.64806   0.66305
 Alpha virt. eigenvalues --    0.67004   0.76599   0.76906   0.78820   0.79668
 Alpha virt. eigenvalues --    0.80230   0.80958   0.81123   0.82208   0.83726
 Alpha virt. eigenvalues --    0.83799   0.84057   0.84822   0.85959   0.86767
 Alpha virt. eigenvalues --    0.86896   0.88015   0.88946   0.89561   0.90270
 Alpha virt. eigenvalues --    0.90675   0.91795   0.92195   0.92398   0.93187
 Alpha virt. eigenvalues --    0.93254   0.94136   0.94361   0.94847   0.95504
 Alpha virt. eigenvalues --    0.96408   0.96453   0.96795   0.97395   0.97486
 Alpha virt. eigenvalues --    0.97641   0.98018   0.98324   0.98651   0.99282
 Alpha virt. eigenvalues --    0.99350   1.00039   1.00671   1.00862   1.01114
 Alpha virt. eigenvalues --    1.02395   1.02816   1.03176   1.03302   1.03918
 Alpha virt. eigenvalues --    1.04751   1.05624   1.05809   1.06252   1.06580
 Alpha virt. eigenvalues --    1.07225   1.07467   1.08134   1.08700   1.08910
 Alpha virt. eigenvalues --    1.09454   1.09844   1.10197   1.10515   1.10987
 Alpha virt. eigenvalues --    1.12003   1.12444   1.13275   1.13774   1.14124
 Alpha virt. eigenvalues --    1.14809   1.15772   1.16181   1.16522   1.17126
 Alpha virt. eigenvalues --    1.17486   1.18089   1.18872   1.18939   1.19295
 Alpha virt. eigenvalues --    1.19621   1.19846   1.20967   1.21077   1.21511
 Alpha virt. eigenvalues --    1.21843   1.22362   1.23082   1.23753   1.24390
 Alpha virt. eigenvalues --    1.25723   1.26453   1.26774   1.27542   1.28020
 Alpha virt. eigenvalues --    1.28807   1.29629   1.30674   1.30820   1.32022
 Alpha virt. eigenvalues --    1.33888   1.34185   1.35337   1.36186   1.37823
 Alpha virt. eigenvalues --    1.42585   1.43253   1.44486   1.45318   1.47085
 Alpha virt. eigenvalues --    1.47819   1.49052   1.50148   1.50844   1.51309
 Alpha virt. eigenvalues --    1.51930   1.52701   1.53726   1.53802   1.54507
 Alpha virt. eigenvalues --    1.55081   1.55580   1.55786   1.56018   1.56717
 Alpha virt. eigenvalues --    1.56940   1.57490   1.57792   1.58357   1.58436
 Alpha virt. eigenvalues --    1.59009   1.59216   1.59622   1.60328   1.60366
 Alpha virt. eigenvalues --    1.61060   1.61982   1.62186   1.62435   1.62817
 Alpha virt. eigenvalues --    1.63376   1.63726   1.63936   1.64472   1.64796
 Alpha virt. eigenvalues --    1.65636   1.65859   1.66050   1.66849   1.66953
 Alpha virt. eigenvalues --    1.67429   1.67968   1.68700   1.70425   1.70668
 Alpha virt. eigenvalues --    1.71151   1.71640   1.71986   1.72537   1.72843
 Alpha virt. eigenvalues --    1.73343   1.73420   1.74094   1.74935   1.75418
 Alpha virt. eigenvalues --    1.75915   1.76453   1.77082   1.77553   1.77822
 Alpha virt. eigenvalues --    1.78288   1.78324   1.78565   1.78810   1.79364
 Alpha virt. eigenvalues --    1.79456   1.80369   1.80627   1.81138   1.81428
 Alpha virt. eigenvalues --    1.81679   1.82205   1.82311   1.82994   1.83202
 Alpha virt. eigenvalues --    1.83572   1.83764   1.84554   1.85006   1.85471
 Alpha virt. eigenvalues --    1.85659   1.86027   1.86331   1.86467   1.86945
 Alpha virt. eigenvalues --    1.87054   1.87368   1.87722   1.88425   1.89159
 Alpha virt. eigenvalues --    1.90177   1.90817   1.91058   1.91745   1.92607
 Alpha virt. eigenvalues --    1.92818   1.93377   1.94582   1.95065   1.97116
 Alpha virt. eigenvalues --    1.97333   1.97993   1.99320   2.01151   2.01577
 Alpha virt. eigenvalues --    2.04144   2.06280   2.08557   2.09749   2.11763
 Alpha virt. eigenvalues --    2.15255   2.19272   2.29536   2.33649   2.33941
 Alpha virt. eigenvalues --    2.34483   2.34977   2.35027   2.36290   2.36532
 Alpha virt. eigenvalues --    2.36951   2.37886   2.37941   2.39482   2.39677
 Alpha virt. eigenvalues --    2.39812   2.40662   2.41050   2.42524   2.44553
 Alpha virt. eigenvalues --    2.44774   2.46453   2.47684   2.49249   2.51982
 Alpha virt. eigenvalues --    2.56011   2.56217   2.58278   2.59234   2.59678
 Alpha virt. eigenvalues --    2.60115   2.60720   2.61283   2.61556   2.61976
 Alpha virt. eigenvalues --    2.62037   2.62277   2.62478   2.62762   2.62986
 Alpha virt. eigenvalues --    2.63085   2.63124   2.63503   2.63785   2.64110
 Alpha virt. eigenvalues --    2.64555   2.64705   2.65515   2.65602   2.65712
 Alpha virt. eigenvalues --    2.65960   2.66126   2.67534   2.68526   2.69201
 Alpha virt. eigenvalues --    2.69703   2.70668   2.71243   2.72958   2.73634
 Alpha virt. eigenvalues --    2.74527   2.74878   2.76503   2.76860   2.77308
 Alpha virt. eigenvalues --    2.77555   2.77977   2.81608   2.82347   2.84699
 Alpha virt. eigenvalues --    2.86665   2.94394   3.40454   3.40631   3.41027
 Alpha virt. eigenvalues --    3.41443   3.42062   3.43330   3.43822   3.45090
 Alpha virt. eigenvalues --    3.46058   3.46531   3.47330   3.47707   3.49443
 Alpha virt. eigenvalues --    3.50043   3.51867   3.54295   3.54764   3.55426
 Alpha virt. eigenvalues --    4.72005   6.21222   6.60430   7.77797
          Condensed to atoms (all electrons):
 Mulliken charges:
               1
     1  Si   1.291166
     2  O   -0.642332
     3  O   -0.650931
     4  O   -0.649956
     5  O   -0.757615
     6  Zr   1.619766
     7  Si   1.117836
     8  Si   1.161244
     9  Si   1.135862
    10  O   -0.820978
    11  Zr   1.492681
    12  O   -0.861923
    13  Zr   1.593284
    14  O   -0.828178
    15  Zr   1.551329
    16  O   -0.626476
    17  O   -0.574624
    18  O   -0.663795
    19  O   -0.625427
    20  O   -0.611025
    21  O   -0.643697
    22  O   -0.578012
    23  O   -0.653945
    24  O   -0.617903
    25  H    0.355018
    26  H    0.333860
    27  H    0.366730
    28  H    0.369225
    29  H    0.364794
    30  H    0.337702
    31  H    0.336355
    32  H    0.380442
    33  H    0.344340
    34  O   -0.694994
    35  H    0.332481
    36  O   -0.707080
    37  H    0.365411
    38  O   -0.749499
    39  H    0.331300
    40  O   -0.763920
    41  H    0.372107
    42  O   -0.694461
    43  H    0.334270
    44  O   -0.699190
    45  H    0.335339
    46  O   -0.762079
    47  H    0.380713
    48  O   -0.742170
    49  H    0.340301
    50  O   -0.691488
    51  H    0.368145
 Sum of Mulliken charges =  -0.00000
 Mulliken charges with hydrogens summed into heavy atoms:
               1
     1  Si   1.291166
     2  O   -0.642332
     3  O   -0.650931
     4  O   -0.649956
     5  O   -0.757615
     6  Zr   1.619766
     7  Si   1.117836
     8  Si   1.161244
     9  Si   1.135862
    10  O   -0.820978
    11  Zr   1.492681
    12  O   -0.861923
    13  Zr   1.593284
    14  O   -0.828178
    15  Zr   1.551329
    16  O   -0.288775
    17  O   -0.238269
    18  O   -0.299002
    19  O   -0.281087
    20  O   -0.241800
    21  O   -0.263255
    22  O   -0.244151
    23  O   -0.298927
    24  O   -0.251173
    34  O   -0.362514
    36  O   -0.341669
    38  O   -0.418200
    40  O   -0.391813
    42  O   -0.360191
    44  O   -0.363851
    46  O   -0.381366
    48  O   -0.401869
    50  O   -0.323343
 Electronic spatial extent (au):  <R**2>=          25280.3375
 Charge=             -0.0000 electrons
 Dipole moment (field-independent basis, Debye):
    X=              2.1135    Y=              4.4811    Z=              0.8780  Tot=              5.0317
 Quadrupole moment (field-independent basis, Debye-Ang):
   XX=           -296.2926   YY=           -257.9830   ZZ=           -261.4426
   XY=              2.8465   XZ=              7.6460   YZ=             -8.0500
 Traceless Quadrupole moment (field-independent basis, Debye-Ang):
   XX=            -24.3865   YY=             13.9231   ZZ=             10.4634
   XY=              2.8465   XZ=              7.6460   YZ=             -8.0500
 Octapole moment (field-independent basis, Debye-Ang**2):
  XXX=            329.7410  YYY=            104.8567  ZZZ=            -36.7087  XYY=            159.2951
  XXY=             59.0196  XXZ=            -27.8036  XZZ=            121.2043  YZZ=             11.9767
  YYZ=            -20.6297  XYZ=             58.1321
 Hexadecapole moment (field-independent basis, Debye-Ang**3):
 XXXX=         -22965.2214 YYYY=          -5818.6708 ZZZZ=          -4853.5825 XXXY=             97.5643
 XXXZ=            -72.2414 YYYX=             55.7664 YYYZ=             28.4095 ZZZX=             85.0498
 ZZZY=            -60.3937 XXYY=          -4713.8091 XXZZ=          -3853.3218 YYZZ=          -1737.6314
 XXYZ=           -518.1501 YYXZ=           -164.3733 ZZXY=            176.5562
 N-N= 5.654410392008D+03 E-N=-1.890947180709D+04  KE= 3.091319476362D+03
 1\1\GINC-GRA1190\FOpt\RB3LYP\Gen\H18O25Si4Zr4\SARASHS\24-Jun-2020\0\\#
 n B3LYP/GEN PSEUDO=READ Opt(modredundant)\\Title\\0,1\Si,-2.7721052721
 ,0.4217256246,-0.9175574323\O,-2.6256005919,-0.1201118337,0.6202202224
 \O,-3.6632201406,1.8150141675,-0.8954233426\O,-3.5618367579,-0.7266601
 319,-1.7804335789\O,-1.2824882791,0.719465305,-1.4850102429\Zr,0.65853
 84984,0.5250116513,-1.0233850242\Si,-2.779767085,-0.4268299634,2.20920
 03501\Si,-5.1940859967,2.1477608776,-0.3773185717\Si,-4.7636776326,-1.
 8123412579,-1.4004742721\O,1.5020752401,-1.0339595518,-1.7903202724\Zr
 ,3.1973593446,-2.1579820005,-1.8474403945\O,0.8980659351,0.1983422355,
 0.9565824014\Zr,2.2210190075,-0.8651805094,1.9595079708\O,1.7746595493
 ,2.1024369639,-1.4151307055\Zr,3.5944830469,2.7916364655,-1.0178161022
 \O,-6.3138993116,1.8089647468,-1.5494724979\O,-5.2475486248,3.73219575
 32,0.034999405\O,-5.6115587015,1.1773640406,0.8960409025\O,-3.37020997
 31,-1.9843623627,2.262823228\O,-3.7759877362,0.617035957,2.9724219584\
 O,-1.2677601225,-0.3679994164,2.8734304239\O,-5.2304437508,-2.55260110
 05,-2.7865372819\O,-6.0749531232,-0.9680572986,-0.8155534514\O,-4.2848
 383229,-2.8964677087,-0.28862035\H,-6.4536332608,-0.3200631815,-1.4324
 296619\H,-4.5236077363,-2.9316434072,-3.320066719\H,-3.9300984845,-2.6
 105322527,0.5732699889\H,-4.5319944496,0.9071967606,2.4231374356\H,-5.
 9373615334,0.3080900325,0.5811854351\H,-6.2880122301,2.35794891,-2.341
 1275568\H,-4.3934563217,4.1468501433,0.1980865744\H,-0.6381834879,0.04
 72310913,2.2540730444\H,-3.8899986231,-2.2260157672,3.0373773891\O,3.4
 267424129,-2.5858392443,-3.7544284243\H,4.0323888133,-2.2699590186,-4.
 4321351608\O,4.6997767889,-0.9811555044,-1.4728002367\H,4.8527517753,-
 0.1987085361,-0.9054796712\O,3.1930928082,-4.0424656928,-1.0884215077\
 H,3.3124812303,-4.8411117129,-1.6139307122\O,4.4604450661,1.349754049,
 0.0437749848\H,4.4022015773,1.1209268663,0.9954896519\O,4.5995693092,3
 .0415999279,-2.6764551274\H,4.9404906889,3.6776059222,-3.3097370951\O,
 3.4296119478,4.427279225,0.028079741\H,2.9289238973,5.1267634177,0.452
 1003666\O,2.8876591299,-2.2248337642,0.653721424\H,2.9661679191,-3.197
 2407749,0.5809113777\O,3.72490171,0.3355889967,2.5173775203\H,4.045979
 7455,0.6286589512,3.3771488509\O,1.2710488625,-1.6020839779,3.48304662
 57\H,0.3215832454,-1.4855821121,3.6679781208\\Version=ES64L-G16RevB.01
 \State=1-A\HF=-3237.5673308\RMSD=8.076e-09\RMSF=2.656e-04\Dipole=0.842
 6231,1.7748394,0.2425474\Quadrupole=-17.3260698,10.0262543,7.2998154,1
 .7947911,7.2594567,-6.1553534\PG=C01 [X(H18O25Si4Zr4)]\\@


 CHRISTMAS IS ON TOP OF A STEEP HILL.
 THE CLOSER YOU GET, THE STEEPER THE HILL IS.
          -- LINUS, OF PEANUTS
 Job cpu time:       1 days  1 hours 51 minutes 46.2 seconds.
 Elapsed time:       0 days  1 hours 43 minutes 49.6 seconds.
 File lengths (MBytes):  RWF=    218 Int=      0 D2E=      0 Chk=     28 Scr=      1
 Normal termination of Gaussian 16 at Wed Jun 24 15:43:41 2020.
