 Entering Gaussian System, Link 0=g16
 Initial command:
 /opt/software/gaussian/g16.b01/l1.exe "/localscratch/sarashs.33453287.0/Gau-14155.inp" -scrdir="/localscratch/sarashs.33453287.0/"
 Entering Link 1 = /opt/software/gaussian/g16.b01/l1.exe PID=     14156.
  
 Copyright (c) 1988-2017, Gaussian, Inc.  All Rights Reserved.
  
 This is part of the Gaussian(R) 16 program.  It is based on
 the Gaussian(R) 09 system (copyright 2009, Gaussian, Inc.),
 the Gaussian(R) 03 system (copyright 2003, Gaussian, Inc.),
 the Gaussian(R) 98 system (copyright 1998, Gaussian, Inc.),
 the Gaussian(R) 94 system (copyright 1995, Gaussian, Inc.),
 the Gaussian 92(TM) system (copyright 1992, Gaussian, Inc.),
 the Gaussian 90(TM) system (copyright 1990, Gaussian, Inc.),
 the Gaussian 88(TM) system (copyright 1988, Gaussian, Inc.),
 the Gaussian 86(TM) system (copyright 1986, Carnegie Mellon
 University), and the Gaussian 82(TM) system (copyright 1983,
 Carnegie Mellon University). Gaussian is a federally registered
 trademark of Gaussian, Inc.
  
 This software contains proprietary and confidential information,
 including trade secrets, belonging to Gaussian, Inc.
  
 This software is provided under written license and may be
 used, copied, transmitted, or stored only in accord with that
 written license.
  
 The following legend is applicable only to US Government
 contracts under FAR:
  
                    RESTRICTED RIGHTS LEGEND
  
 Use, reproduction and disclosure by the US Government is
 subject to restrictions as set forth in subparagraphs (a)
 and (c) of the Commercial Computer Software - Restricted
 Rights clause in FAR 52.227-19.
  
 Gaussian, Inc.
 340 Quinnipiac St., Bldg. 40, Wallingford CT 06492
  
  
 ---------------------------------------------------------------
 Warning -- This program may not be used in any manner that
 competes with the business of Gaussian, Inc. or will provide
 assistance to any competitor of Gaussian, Inc.  The licensee
 of this program is prohibited from giving any competitor of
 Gaussian, Inc. access to this program.  By using this program,
 the user acknowledges that Gaussian, Inc. is engaged in the
 business of creating and licensing software in the field of
 computational chemistry and represents and warrants to the
 licensee that it is not a competitor of Gaussian, Inc. and that
 it will not use this program in any manner prohibited above.
 ---------------------------------------------------------------
  

 Cite this work as:
 Gaussian 16, Revision B.01,
 M. J. Frisch, G. W. Trucks, H. B. Schlegel, G. E. Scuseria, 
 M. A. Robb, J. R. Cheeseman, G. Scalmani, V. Barone, 
 G. A. Petersson, H. Nakatsuji, X. Li, M. Caricato, A. V. Marenich, 
 J. Bloino, B. G. Janesko, R. Gomperts, B. Mennucci, H. P. Hratchian, 
 J. V. Ortiz, A. F. Izmaylov, J. L. Sonnenberg, D. Williams-Young, 
 F. Ding, F. Lipparini, F. Egidi, J. Goings, B. Peng, A. Petrone, 
 T. Henderson, D. Ranasinghe, V. G. Zakrzewski, J. Gao, N. Rega, 
 G. Zheng, W. Liang, M. Hada, M. Ehara, K. Toyota, R. Fukuda, 
 J. Hasegawa, M. Ishida, T. Nakajima, Y. Honda, O. Kitao, H. Nakai, 
 T. Vreven, K. Throssell, J. A. Montgomery, Jr., J. E. Peralta, 
 F. Ogliaro, M. J. Bearpark, J. J. Heyd, E. N. Brothers, K. N. Kudin, 
 V. N. Staroverov, T. A. Keith, R. Kobayashi, J. Normand, 
 K. Raghavachari, A. P. Rendell, J. C. Burant, S. S. Iyengar, 
 J. Tomasi, M. Cossi, J. M. Millam, M. Klene, C. Adamo, R. Cammi, 
 J. W. Ochterski, R. L. Martin, K. Morokuma, O. Farkas, 
 J. B. Foresman, and D. J. Fox, Gaussian, Inc., Wallingford CT, 2016.
 
 ******************************************
 Gaussian 16:  ES64L-G16RevB.01 20-Dec-2017
                24-Jun-2020 
 ******************************************
 %NProcShared=16
 Will use up to   16 processors via shared memory.
 ------------------------------------------
 #n B3LYP/GEN PSEUDO=READ Opt(modredundant)
 ------------------------------------------
 1/18=120,19=15,26=3,38=1/1,3;
 2/9=110,12=2,17=6,18=5,40=1/2;
 3/5=7,11=2,16=1,17=8,25=1,30=1,71=1,74=-5/1,2,3;
 4//1;
 5/5=2,38=5/2;
 6/7=2,8=2,9=2,10=2,28=1/1;
 7//1,2,3,16;
 1/18=20,19=15,26=3/3(2);
 2/9=110/2;
 99//99;
 2/9=110/2;
 3/5=7,6=1,11=2,16=1,17=8,25=1,30=1,71=1,74=-5,82=7/1,2,3;
 4/5=5,16=3,69=1/1;
 5/5=2,38=5/2;
 7//1,2,3,16;
 1/18=20,19=15,26=3/3(-5);
 2/9=110/2;
 6/7=2,8=2,9=2,10=2,19=2,28=1/1;
 99/9=1/99;
 -----
 Title
 -----
 Symbolic Z-matrix:
 Charge =  0 Multiplicity = 1
 Si                   -2.76356   0.50373  -0.80236 
 O                    -2.64408  -0.06281   0.73154 
 O                    -3.71347   1.8573   -0.78988 
 O                    -3.46982  -0.65647  -1.71915 
 O                    -1.26704   0.87374  -1.30905 
 Zr                    0.53062   0.5443   -0.46967 
 Si                   -2.95182  -0.40071   2.29443 
 Si                   -5.29329   2.11319  -0.39088 
 Si                   -4.65193  -1.79724  -1.46558 
 O                     1.37291  -1.08488  -1.07181 
 Zr                    2.99602  -2.29689  -0.87299 
 O                     0.44843   0.24497   1.53037 
 Zr                    1.55807  -0.8581    2.7304 
 O                     1.81005   2.02359  -0.70338 
 Zr                    3.59273   2.61557  -0.05713 
 O                    -6.30259   1.76732  -1.65717 
 O                    -5.44687   3.68028   0.05984 
 O                    -5.76721   1.08545   0.81639 
 O                    -3.50601  -1.97299   2.26095 
 O                    -4.03994   0.60192   2.98173 
 O                    -1.51274  -0.31185   3.10045 
 O                    -4.9739   -2.52135  -2.90029 
 O                    -6.04082  -1.02047  -0.97357 
 O                    -4.21989  -2.88703  -0.34024 
 H                    -6.38886  -0.36717  -1.60281 
 H                    -4.21233  -2.86813  -3.37752 
 H                    -3.92943  -2.60256   0.54609 
 H                    -4.78107   0.84544   2.39047 
 H                    -6.04405   0.21773   0.45311 
 H                    -6.24075   2.34318  -2.42744 
 H                    -4.62851   4.12226   0.31086 
 H                    -0.83615   0.10482   2.53314 
 H                    -4.05643  -2.25627   2.99954 
 O                     3.46208  -2.78539  -2.72129 
 H                     4.17011  -2.51923  -3.316 
 O                     4.49487  -1.18938  -0.31651 
 H                     4.61939  -0.42241   0.27819 
 O                     2.78075  -4.15718  -0.08615 
 H                     2.92523  -4.9751   -0.57439 
 O                     4.20498   1.16149   1.15384 
 H                     3.98613   0.96616   2.08939 
 O                     4.84355   2.75967  -1.5531 
 H                     5.30734   3.35703  -2.14459 
 O                     3.37607   4.28873   0.91731 
 H                     2.86219   5.03164   1.23945 
 O                     2.34388  -2.27578   1.55798 
 H                     2.37596  -3.25278   1.51943 
 O                     3.02123   0.27561   3.49776 
 H                     3.22462   0.56619   4.39351 
 O                     0.36037  -1.5283    4.10259 
 H                    -0.60271  -1.38354   4.12972 
 
 The following ModRedundant input section has been read:
 A       1       5       6 F                                                   
 

 GradGradGradGradGradGradGradGradGradGradGradGradGradGradGradGradGradGrad
 Berny optimization.
 Initialization pass.
                           ----------------------------
                           !    Initial Parameters    !
                           ! (Angstroms and Degrees)  !
 --------------------------                            --------------------------
 ! Name  Definition              Value          Derivative Info.                !
 --------------------------------------------------------------------------------
 ! R1    R(1,2)                  1.6395         estimate D2E/DX2                !
 ! R2    R(1,3)                  1.6537         estimate D2E/DX2                !
 ! R3    R(1,4)                  1.6387         estimate D2E/DX2                !
 ! R4    R(1,5)                  1.6227         estimate D2E/DX2                !
 ! R5    R(2,7)                  1.6283         estimate D2E/DX2                !
 ! R6    R(3,8)                  1.6494         estimate D2E/DX2                !
 ! R7    R(4,9)                  1.6622         estimate D2E/DX2                !
 ! R8    R(5,6)                  2.0111         estimate D2E/DX2                !
 ! R9    R(6,10)                 1.9304         estimate D2E/DX2                !
 ! R10   R(6,12)                 2.024          estimate D2E/DX2                !
 ! R11   R(6,14)                 1.9697         estimate D2E/DX2                !
 ! R12   R(7,19)                 1.6674         estimate D2E/DX2                !
 ! R13   R(7,20)                 1.6315         estimate D2E/DX2                !
 ! R14   R(7,21)                 1.6518         estimate D2E/DX2                !
 ! R15   R(8,16)                 1.6558         estimate D2E/DX2                !
 ! R16   R(8,17)                 1.6378         estimate D2E/DX2                !
 ! R17   R(8,18)                 1.6548         estimate D2E/DX2                !
 ! R18   R(9,22)                 1.639          estimate D2E/DX2                !
 ! R19   R(9,23)                 1.6657         estimate D2E/DX2                !
 ! R20   R(9,24)                 1.625          estimate D2E/DX2                !
 ! R21   R(10,11)                2.0354         estimate D2E/DX2                !
 ! R22   R(11,34)                1.9678         estimate D2E/DX2                !
 ! R23   R(11,36)                1.9449         estimate D2E/DX2                !
 ! R24   R(11,38)                2.0313         estimate D2E/DX2                !
 ! R25   R(12,13)                1.9718         estimate D2E/DX2                !
 ! R26   R(13,46)                2.0005         estimate D2E/DX2                !
 ! R27   R(13,48)                2.0037         estimate D2E/DX2                !
 ! R28   R(13,50)                1.9408         estimate D2E/DX2                !
 ! R29   R(14,15)                1.9865         estimate D2E/DX2                !
 ! R30   R(15,40)                1.9889         estimate D2E/DX2                !
 ! R31   R(15,42)                1.9553         estimate D2E/DX2                !
 ! R32   R(15,44)                1.9483         estimate D2E/DX2                !
 ! R33   R(16,30)                0.9637         estimate D2E/DX2                !
 ! R34   R(17,31)                0.9634         estimate D2E/DX2                !
 ! R35   R(18,29)                0.9806         estimate D2E/DX2                !
 ! R36   R(19,33)                0.9637         estimate D2E/DX2                !
 ! R37   R(20,28)                0.9789         estimate D2E/DX2                !
 ! R38   R(21,32)                0.9763         estimate D2E/DX2                !
 ! R39   R(22,26)                0.9633         estimate D2E/DX2                !
 ! R40   R(23,25)                0.9715         estimate D2E/DX2                !
 ! R41   R(24,27)                0.9751         estimate D2E/DX2                !
 ! R42   R(34,35)                0.9622         estimate D2E/DX2                !
 ! R43   R(36,37)                0.9785         estimate D2E/DX2                !
 ! R44   R(38,39)                0.9635         estimate D2E/DX2                !
 ! R45   R(40,41)                0.9805         estimate D2E/DX2                !
 ! R46   R(42,43)                0.9601         estimate D2E/DX2                !
 ! R47   R(44,45)                0.959          estimate D2E/DX2                !
 ! R48   R(46,47)                0.9783         estimate D2E/DX2                !
 ! R49   R(48,49)                0.9634         estimate D2E/DX2                !
 ! R50   R(50,51)                0.9743         estimate D2E/DX2                !
 ! A1    A(2,1,3)              108.5202         estimate D2E/DX2                !
 ! A2    A(2,1,4)              108.0696         estimate D2E/DX2                !
 ! A3    A(2,1,5)              107.6808         estimate D2E/DX2                !
 ! A4    A(3,1,4)              109.6434         estimate D2E/DX2                !
 ! A5    A(3,1,5)              110.2104         estimate D2E/DX2                !
 ! A6    A(4,1,5)              112.595          estimate D2E/DX2                !
 ! A7    A(1,2,7)              162.9195         estimate D2E/DX2                !
 ! A8    A(1,3,8)              132.766          estimate D2E/DX2                !
 ! A9    A(1,4,9)              134.9946         estimate D2E/DX2                !
 ! A10   A(1,5,6)              131.046          Frozen                          !
 ! A11   A(5,6,10)             113.4585         estimate D2E/DX2                !
 ! A12   A(5,6,12)             113.6005         estimate D2E/DX2                !
 ! A13   A(5,6,14)             114.0827         estimate D2E/DX2                !
 ! A14   A(10,6,12)            101.6039         estimate D2E/DX2                !
 ! A15   A(10,6,14)            108.2645         estimate D2E/DX2                !
 ! A16   A(12,6,14)            104.7553         estimate D2E/DX2                !
 ! A17   A(2,7,19)             103.84           estimate D2E/DX2                !
 ! A18   A(2,7,20)             113.7575         estimate D2E/DX2                !
 ! A19   A(2,7,21)             107.0096         estimate D2E/DX2                !
 ! A20   A(19,7,20)            111.4863         estimate D2E/DX2                !
 ! A21   A(19,7,21)            110.4922         estimate D2E/DX2                !
 ! A22   A(20,7,21)            110.0253         estimate D2E/DX2                !
 ! A23   A(3,8,16)             111.4953         estimate D2E/DX2                !
 ! A24   A(3,8,17)             107.7477         estimate D2E/DX2                !
 ! A25   A(3,8,18)             110.7593         estimate D2E/DX2                !
 ! A26   A(16,8,17)            110.6802         estimate D2E/DX2                !
 ! A27   A(16,8,18)            104.6923         estimate D2E/DX2                !
 ! A28   A(17,8,18)            111.5071         estimate D2E/DX2                !
 ! A29   A(4,9,22)             108.021          estimate D2E/DX2                !
 ! A30   A(4,9,23)             108.5421         estimate D2E/DX2                !
 ! A31   A(4,9,24)             112.1363         estimate D2E/DX2                !
 ! A32   A(22,9,23)            107.505          estimate D2E/DX2                !
 ! A33   A(22,9,24)            111.2311         estimate D2E/DX2                !
 ! A34   A(23,9,24)            109.2613         estimate D2E/DX2                !
 ! A35   A(6,10,11)            145.0882         estimate D2E/DX2                !
 ! A36   A(10,11,34)           104.1785         estimate D2E/DX2                !
 ! A37   A(10,11,36)           107.6623         estimate D2E/DX2                !
 ! A38   A(10,11,38)           119.9112         estimate D2E/DX2                !
 ! A39   A(34,11,36)           103.1549         estimate D2E/DX2                !
 ! A40   A(34,11,38)            99.2993         estimate D2E/DX2                !
 ! A41   A(36,11,38)           119.4941         estimate D2E/DX2                !
 ! A42   A(6,12,13)            131.3965         estimate D2E/DX2                !
 ! A43   A(12,13,46)           105.1187         estimate D2E/DX2                !
 ! A44   A(12,13,48)           109.1157         estimate D2E/DX2                !
 ! A45   A(12,13,50)           106.0328         estimate D2E/DX2                !
 ! A46   A(46,13,48)           109.7899         estimate D2E/DX2                !
 ! A47   A(46,13,50)           114.3346         estimate D2E/DX2                !
 ! A48   A(48,13,50)           112.0399         estimate D2E/DX2                !
 ! A49   A(6,14,15)            140.1851         estimate D2E/DX2                !
 ! A50   A(14,15,40)           104.8604         estimate D2E/DX2                !
 ! A51   A(14,15,42)           110.3125         estimate D2E/DX2                !
 ! A52   A(14,15,44)           108.5925         estimate D2E/DX2                !
 ! A53   A(40,15,42)           108.8318         estimate D2E/DX2                !
 ! A54   A(40,15,44)           110.9505         estimate D2E/DX2                !
 ! A55   A(42,15,44)           112.9856         estimate D2E/DX2                !
 ! A56   A(8,16,30)            116.5711         estimate D2E/DX2                !
 ! A57   A(8,17,31)            115.5324         estimate D2E/DX2                !
 ! A58   A(8,18,29)            111.1097         estimate D2E/DX2                !
 ! A59   A(7,19,33)            116.8474         estimate D2E/DX2                !
 ! A60   A(7,20,28)            113.7913         estimate D2E/DX2                !
 ! A61   A(7,21,32)            110.0697         estimate D2E/DX2                !
 ! A62   A(9,22,26)            115.9371         estimate D2E/DX2                !
 ! A63   A(9,23,25)            114.8968         estimate D2E/DX2                !
 ! A64   A(9,24,27)            120.8639         estimate D2E/DX2                !
 ! A65   A(11,34,35)           133.3274         estimate D2E/DX2                !
 ! A66   A(11,36,37)           135.9152         estimate D2E/DX2                !
 ! A67   A(11,38,39)           124.4223         estimate D2E/DX2                !
 ! A68   A(15,40,41)           131.1415         estimate D2E/DX2                !
 ! A69   A(15,42,43)           145.7115         estimate D2E/DX2                !
 ! A70   A(15,44,45)           153.2298         estimate D2E/DX2                !
 ! A71   A(13,46,47)           138.049          estimate D2E/DX2                !
 ! A72   A(13,48,49)           132.9121         estimate D2E/DX2                !
 ! A73   A(13,50,51)           125.3392         estimate D2E/DX2                !
 ! D1    D(3,1,2,7)             26.3443         estimate D2E/DX2                !
 ! D2    D(4,1,2,7)            -92.4856         estimate D2E/DX2                !
 ! D3    D(5,1,2,7)            145.6313         estimate D2E/DX2                !
 ! D4    D(2,1,3,8)            -62.7632         estimate D2E/DX2                !
 ! D5    D(4,1,3,8)             55.0697         estimate D2E/DX2                !
 ! D6    D(5,1,3,8)            179.5501         estimate D2E/DX2                !
 ! D7    D(2,1,4,9)             35.4977         estimate D2E/DX2                !
 ! D8    D(3,1,4,9)            -82.6158         estimate D2E/DX2                !
 ! D9    D(5,1,4,9)            154.3011         estimate D2E/DX2                !
 ! D10   D(2,1,5,6)              7.9483         estimate D2E/DX2                !
 ! D11   D(3,1,5,6)            126.1523         estimate D2E/DX2                !
 ! D12   D(4,1,5,6)           -111.0821         estimate D2E/DX2                !
 ! D13   D(1,2,7,19)           100.9483         estimate D2E/DX2                !
 ! D14   D(1,2,7,20)           -20.4241         estimate D2E/DX2                !
 ! D15   D(1,2,7,21)          -142.1534         estimate D2E/DX2                !
 ! D16   D(1,3,8,16)           -83.6614         estimate D2E/DX2                !
 ! D17   D(1,3,8,17)           154.7            estimate D2E/DX2                !
 ! D18   D(1,3,8,18)            32.4929         estimate D2E/DX2                !
 ! D19   D(1,4,9,22)           173.7129         estimate D2E/DX2                !
 ! D20   D(1,4,9,23)            57.4339         estimate D2E/DX2                !
 ! D21   D(1,4,9,24)           -63.3679         estimate D2E/DX2                !
 ! D22   D(1,5,6,10)            93.8086         estimate D2E/DX2                !
 ! D23   D(1,5,6,12)           -21.5875         estimate D2E/DX2                !
 ! D24   D(1,5,6,14)          -141.5685         estimate D2E/DX2                !
 ! D25   D(5,6,10,11)         -177.8676         estimate D2E/DX2                !
 ! D26   D(12,6,10,11)         -55.548          estimate D2E/DX2                !
 ! D27   D(14,6,10,11)          54.4244         estimate D2E/DX2                !
 ! D28   D(5,6,12,13)          148.1501         estimate D2E/DX2                !
 ! D29   D(10,6,12,13)          25.9283         estimate D2E/DX2                !
 ! D30   D(14,6,12,13)         -86.7115         estimate D2E/DX2                !
 ! D31   D(5,6,14,15)          169.9961         estimate D2E/DX2                !
 ! D32   D(10,6,14,15)         -62.6539         estimate D2E/DX2                !
 ! D33   D(12,6,14,15)          45.1621         estimate D2E/DX2                !
 ! D34   D(2,7,19,33)         -156.8425         estimate D2E/DX2                !
 ! D35   D(20,7,19,33)         -33.9627         estimate D2E/DX2                !
 ! D36   D(21,7,19,33)          88.7198         estimate D2E/DX2                !
 ! D37   D(2,7,20,28)           39.0047         estimate D2E/DX2                !
 ! D38   D(19,7,20,28)         -78.0052         estimate D2E/DX2                !
 ! D39   D(21,7,20,28)         159.0451         estimate D2E/DX2                !
 ! D40   D(2,7,21,32)           12.2859         estimate D2E/DX2                !
 ! D41   D(19,7,21,32)         124.7052         estimate D2E/DX2                !
 ! D42   D(20,7,21,32)        -111.7631         estimate D2E/DX2                !
 ! D43   D(3,8,16,30)          -66.936          estimate D2E/DX2                !
 ! D44   D(17,8,16,30)          52.9866         estimate D2E/DX2                !
 ! D45   D(18,8,16,30)         173.2574         estimate D2E/DX2                !
 ! D46   D(3,8,17,31)          -19.3558         estimate D2E/DX2                !
 ! D47   D(16,8,17,31)        -141.4996         estimate D2E/DX2                !
 ! D48   D(18,8,17,31)         102.3883         estimate D2E/DX2                !
 ! D49   D(3,8,18,29)          -84.4645         estimate D2E/DX2                !
 ! D50   D(16,8,18,29)          35.8337         estimate D2E/DX2                !
 ! D51   D(17,8,18,29)         155.5519         estimate D2E/DX2                !
 ! D52   D(4,9,22,26)           52.0376         estimate D2E/DX2                !
 ! D53   D(23,9,22,26)         168.99           estimate D2E/DX2                !
 ! D54   D(24,9,22,26)         -71.4318         estimate D2E/DX2                !
 ! D55   D(4,9,23,25)           59.2735         estimate D2E/DX2                !
 ! D56   D(22,9,23,25)         -57.3378         estimate D2E/DX2                !
 ! D57   D(24,9,23,25)        -178.1643         estimate D2E/DX2                !
 ! D58   D(4,9,24,27)           54.0597         estimate D2E/DX2                !
 ! D59   D(22,9,24,27)         175.1468         estimate D2E/DX2                !
 ! D60   D(23,9,24,27)         -66.3256         estimate D2E/DX2                !
 ! D61   D(6,10,11,34)        -136.8773         estimate D2E/DX2                !
 ! D62   D(6,10,11,36)         -27.803          estimate D2E/DX2                !
 ! D63   D(6,10,11,38)         113.3908         estimate D2E/DX2                !
 ! D64   D(10,11,34,35)        105.9343         estimate D2E/DX2                !
 ! D65   D(36,11,34,35)         -6.4253         estimate D2E/DX2                !
 ! D66   D(38,11,34,35)       -129.8339         estimate D2E/DX2                !
 ! D67   D(10,11,36,37)         37.7972         estimate D2E/DX2                !
 ! D68   D(34,11,36,37)        147.5771         estimate D2E/DX2                !
 ! D69   D(38,11,36,37)       -103.5873         estimate D2E/DX2                !
 ! D70   D(10,11,38,39)        114.2531         estimate D2E/DX2                !
 ! D71   D(34,11,38,39)          1.8856         estimate D2E/DX2                !
 ! D72   D(36,11,38,39)       -109.0655         estimate D2E/DX2                !
 ! D73   D(6,12,13,46)         -23.7702         estimate D2E/DX2                !
 ! D74   D(6,12,13,48)          93.9281         estimate D2E/DX2                !
 ! D75   D(6,12,13,50)        -145.22           estimate D2E/DX2                !
 ! D76   D(12,13,46,47)       -123.8176         estimate D2E/DX2                !
 ! D77   D(48,13,46,47)        118.9422         estimate D2E/DX2                !
 ! D78   D(50,13,46,47)         -7.9579         estimate D2E/DX2                !
 ! D79   D(12,13,48,49)        115.0446         estimate D2E/DX2                !
 ! D80   D(46,13,48,49)       -130.2422         estimate D2E/DX2                !
 ! D81   D(50,13,48,49)         -2.0629         estimate D2E/DX2                !
 ! D82   D(12,13,50,51)          3.8972         estimate D2E/DX2                !
 ! D83   D(46,13,50,51)       -111.4305         estimate D2E/DX2                !
 ! D84   D(48,13,50,51)        122.8395         estimate D2E/DX2                !
 ! D85   D(6,14,15,40)           2.4018         estimate D2E/DX2                !
 ! D86   D(6,14,15,42)         119.4232         estimate D2E/DX2                !
 ! D87   D(6,14,15,44)        -116.255          estimate D2E/DX2                !
 ! D88   D(14,15,40,41)        -80.6713         estimate D2E/DX2                !
 ! D89   D(42,15,40,41)        161.2971         estimate D2E/DX2                !
 ! D90   D(44,15,40,41)         36.3815         estimate D2E/DX2                !
 ! D91   D(14,15,42,43)        104.4333         estimate D2E/DX2                !
 ! D92   D(40,15,42,43)       -141.0361         estimate D2E/DX2                !
 ! D93   D(44,15,42,43)        -17.3233         estimate D2E/DX2                !
 ! D94   D(14,15,44,45)         -4.8204         estimate D2E/DX2                !
 ! D95   D(40,15,44,45)       -119.5627         estimate D2E/DX2                !
 ! D96   D(42,15,44,45)        117.8995         estimate D2E/DX2                !
 --------------------------------------------------------------------------------
 Trust Radius=3.00D-01 FncErr=1.00D-07 GrdErr=1.00D-06 EigMax=2.50D+02 EigMin=1.00D-04
 Number of steps in this run=    229 maximum allowed number of steps=    306.
 GradGradGradGradGradGradGradGradGradGradGradGradGradGradGradGradGradGrad

 Stoichiometry    H18O25Si4Zr4
 Framework group  C1[X(H18O25Si4Zr4)]
 Deg. of freedom   147
 Full point group                 C1      NOp   1
 Largest Abelian subgroup         C1      NOp   1
 Largest concise Abelian subgroup C1      NOp   1
                         Standard orientation:                         
 ---------------------------------------------------------------------
 Center     Atomic      Atomic             Coordinates (Angstroms)
 Number     Number       Type             X           Y           Z
 ---------------------------------------------------------------------
      1         14           0       -2.717195    0.500626   -0.898728
      2          8           0       -2.499791   -0.034742    0.635615
      3          8           0       -3.670665    1.851000   -0.853738
      4          8           0       -3.473887   -0.680015   -1.746594
      5          8           0       -1.256859    0.865424   -1.504991
      6         40           0        0.591092    0.558823   -0.773046
      7         14           0       -2.708012   -0.342362    2.221023
      8         14           0       -5.223711    2.109543   -0.362093
      9         14           0       -4.632671   -1.819425   -1.397308
     10          8           0        1.401675   -1.079248   -1.394279
     11         40           0        3.039547   -2.281622   -1.273212
     12          8           0        0.635040    0.299255    1.233744
     13         40           0        1.822323   -0.775904    2.383756
     14          8           0        1.846695    2.037405   -1.115269
     15         40           0        3.663448    2.648125   -0.593295
     16          8           0       -6.308350    1.735069   -1.555881
     17          8           0       -5.356079    3.684807    0.066308
     18          8           0       -5.616788    1.104563    0.892441
     19          8           0       -3.256013   -1.916836    2.253223
     20          8           0       -3.755773    0.670170    2.954937
     21          8           0       -1.221933   -0.232611    2.933791
     22          8           0       -5.040086   -2.573135   -2.794565
     23          8           0       -5.991748   -1.037613   -0.835045
     24          8           0       -4.126378   -2.885059   -0.279818
     25          1           0       -6.381300   -0.398184   -1.454121
     26          1           0       -4.308149   -2.926842   -3.311434
     27          1           0       -3.782566   -2.581964    0.580878
     28          1           0       -4.533407    0.899351    2.406370
     29          1           0       -5.911751    0.228837    0.564338
     30          1           0       -6.297255    2.295622   -2.339725
     31          1           0       -4.525700    4.134443    0.257015
     32          1           0       -0.583915    0.174891    2.317265
     33          1           0       -3.758046   -2.187132    3.030158
     34          8           0        3.391777   -2.805409   -3.136982
     35          1           0        4.060155   -2.548829   -3.779839
     36          8           0        4.565073   -1.158219   -0.833286
     37          1           0        4.722892   -0.379105   -0.262768
     38          8           0        2.882229   -4.126522   -0.437908
     39          1           0        2.999750   -4.953551   -0.917969
     40          8           0        4.356601    1.220589    0.605591
     41          1           0        4.197359    1.043268    1.556644
     42          8           0        4.817964    2.766468   -2.166931
     43          1           0        5.241264    3.353430   -2.797877
     44          8           0        3.500268    4.339695    0.359545
     45          1           0        3.004063    5.087177    0.698386
     46          8           0        2.540039   -2.214105    1.192813
     47          1           0        2.574124   -3.191568    1.171631
     48          8           0        3.325248    0.377790    3.035819
     49          1           0        3.582719    0.686892    3.911226
     50          8           0        0.715519   -1.422535    3.840949
     51          1           0       -0.244651   -1.280475    3.925241
 ---------------------------------------------------------------------
 Rotational constants (GHZ):           0.0882185           0.0400710           0.0375754
 General basis read from cards:  (5D, 7F)
 ======================================================================================================
                                       Pseudopotential Parameters
 ======================================================================================================
  Center     Atomic      Valence      Angular      Power
  Number     Number     Electrons     Momentum     of R      Exponent        Coefficient   SO-Coeffient
 ======================================================================================================
    1         14
                                   No pseudopotential on this center.
    2          8
                                   No pseudopotential on this center.
    3          8
                                   No pseudopotential on this center.
    4          8
                                   No pseudopotential on this center.
    5          8
                                   No pseudopotential on this center.
    6         40           12
                                      F and up 
                                                     0      645.9321873       -0.04258430    0.00000000
                                                     1      134.7547401      -20.22224090    0.00000000
                                                     2       42.3074619     -101.86951720    0.00000000
                                                     2       12.0003227      -41.61957840    0.00000000
                                                     2        4.1260454       -4.69861600    0.00000000
                                      S - F
                                                     0      117.6251862        2.79105590    0.00000000
                                                     1       22.9646089       41.94894590    0.00000000
                                                     2        4.5225298       67.72718660    0.00000000
                                      P - F
                                                     0       47.1953145        4.99111440    0.00000000
                                                     1       48.0356033       20.71931720    0.00000000
                                                     2       19.4541456      195.58677580    0.00000000
                                                     2        4.0512875       48.28771760    0.00000000
                                      D - F
                                                     0       79.9073983        3.00492260    0.00000000
                                                     1       45.8263798       25.93779890    0.00000000
                                                     2       26.9903522      125.12449340    0.00000000
                                                     2        9.6835718       70.76340220    0.00000000
                                                     2        2.7995666       15.04928220    0.00000000
    7         14
                                   No pseudopotential on this center.
    8         14
                                   No pseudopotential on this center.
    9         14
                                   No pseudopotential on this center.
   10          8
                                   No pseudopotential on this center.
   11         40           12
                                      F and up 
                                                     0      645.9321873       -0.04258430    0.00000000
                                                     1      134.7547401      -20.22224090    0.00000000
                                                     2       42.3074619     -101.86951720    0.00000000
                                                     2       12.0003227      -41.61957840    0.00000000
                                                     2        4.1260454       -4.69861600    0.00000000
                                      S - F
                                                     0      117.6251862        2.79105590    0.00000000
                                                     1       22.9646089       41.94894590    0.00000000
                                                     2        4.5225298       67.72718660    0.00000000
                                      P - F
                                                     0       47.1953145        4.99111440    0.00000000
                                                     1       48.0356033       20.71931720    0.00000000
                                                     2       19.4541456      195.58677580    0.00000000
                                                     2        4.0512875       48.28771760    0.00000000
                                      D - F
                                                     0       79.9073983        3.00492260    0.00000000
                                                     1       45.8263798       25.93779890    0.00000000
                                                     2       26.9903522      125.12449340    0.00000000
                                                     2        9.6835718       70.76340220    0.00000000
                                                     2        2.7995666       15.04928220    0.00000000
   12          8
                                   No pseudopotential on this center.
   13         40           12
                                      F and up 
                                                     0      645.9321873       -0.04258430    0.00000000
                                                     1      134.7547401      -20.22224090    0.00000000
                                                     2       42.3074619     -101.86951720    0.00000000
                                                     2       12.0003227      -41.61957840    0.00000000
                                                     2        4.1260454       -4.69861600    0.00000000
                                      S - F
                                                     0      117.6251862        2.79105590    0.00000000
                                                     1       22.9646089       41.94894590    0.00000000
                                                     2        4.5225298       67.72718660    0.00000000
                                      P - F
                                                     0       47.1953145        4.99111440    0.00000000
                                                     1       48.0356033       20.71931720    0.00000000
                                                     2       19.4541456      195.58677580    0.00000000
                                                     2        4.0512875       48.28771760    0.00000000
                                      D - F
                                                     0       79.9073983        3.00492260    0.00000000
                                                     1       45.8263798       25.93779890    0.00000000
                                                     2       26.9903522      125.12449340    0.00000000
                                                     2        9.6835718       70.76340220    0.00000000
                                                     2        2.7995666       15.04928220    0.00000000
   14          8
                                   No pseudopotential on this center.
   15         40           12
                                      F and up 
                                                     0      645.9321873       -0.04258430    0.00000000
                                                     1      134.7547401      -20.22224090    0.00000000
                                                     2       42.3074619     -101.86951720    0.00000000
                                                     2       12.0003227      -41.61957840    0.00000000
                                                     2        4.1260454       -4.69861600    0.00000000
                                      S - F
                                                     0      117.6251862        2.79105590    0.00000000
                                                     1       22.9646089       41.94894590    0.00000000
                                                     2        4.5225298       67.72718660    0.00000000
                                      P - F
                                                     0       47.1953145        4.99111440    0.00000000
                                                     1       48.0356033       20.71931720    0.00000000
                                                     2       19.4541456      195.58677580    0.00000000
                                                     2        4.0512875       48.28771760    0.00000000
                                      D - F
                                                     0       79.9073983        3.00492260    0.00000000
                                                     1       45.8263798       25.93779890    0.00000000
                                                     2       26.9903522      125.12449340    0.00000000
                                                     2        9.6835718       70.76340220    0.00000000
                                                     2        2.7995666       15.04928220    0.00000000
   16          8
                                   No pseudopotential on this center.
   17          8
                                   No pseudopotential on this center.
   18          8
                                   No pseudopotential on this center.
   19          8
                                   No pseudopotential on this center.
   20          8
                                   No pseudopotential on this center.
   21          8
                                   No pseudopotential on this center.
   22          8
                                   No pseudopotential on this center.
   23          8
                                   No pseudopotential on this center.
   24          8
                                   No pseudopotential on this center.
   25          1
                                   No pseudopotential on this center.
   26          1
                                   No pseudopotential on this center.
   27          1
                                   No pseudopotential on this center.
   28          1
                                   No pseudopotential on this center.
   29          1
                                   No pseudopotential on this center.
   30          1
                                   No pseudopotential on this center.
   31          1
                                   No pseudopotential on this center.
   32          1
                                   No pseudopotential on this center.
   33          1
                                   No pseudopotential on this center.
   34          8
                                   No pseudopotential on this center.
   35          1
                                   No pseudopotential on this center.
   36          8
                                   No pseudopotential on this center.
   37          1
                                   No pseudopotential on this center.
   38          8
                                   No pseudopotential on this center.
   39          1
                                   No pseudopotential on this center.
   40          8
                                   No pseudopotential on this center.
   41          1
                                   No pseudopotential on this center.
   42          8
                                   No pseudopotential on this center.
   43          1
                                   No pseudopotential on this center.
   44          8
                                   No pseudopotential on this center.
   45          1
                                   No pseudopotential on this center.
   46          8
                                   No pseudopotential on this center.
   47          1
                                   No pseudopotential on this center.
   48          8
                                   No pseudopotential on this center.
   49          1
                                   No pseudopotential on this center.
   50          8
                                   No pseudopotential on this center.
   51          1
                                   No pseudopotential on this center.
 ======================================================================================================
 There are   637 symmetry adapted cartesian basis functions of A   symmetry.
 There are   600 symmetry adapted basis functions of A   symmetry.
   600 basis functions,  1230 primitive gaussians,   637 cartesian basis functions
   161 alpha electrons      161 beta electrons
       nuclear repulsion energy      5721.9729303395 Hartrees.
 NAtoms=   51 NActive=   51 NUniq=   51 SFac= 1.00D+00 NAtFMM=   60 NAOKFM=F Big=F
 Integral buffers will be    131072 words long.
 Raffenetti 2 integral format.
 Two-electron integral symmetry is turned on.
 One-electron integrals computed using PRISM.
   1 Symmetry operations used in ECPInt.
 ECPInt:  NShTT=   21321 NPrTT=  126439 LenC2=   15577 LenP2D=   52482.
 LDataN:  DoStor=T MaxTD1= 5 Len=  102
 Number of processors reduced to  12 by ecpmxn.
 NBasis=   600 RedAO= T EigKep=  2.61D-03  NBF=   600
 NBsUse=   600 1.00D-06 EigRej= -1.00D+00 NBFU=   600
 Defaulting to unpruned grid for atomic number  40.
 Defaulting to unpruned grid for atomic number  40.
 Defaulting to unpruned grid for atomic number  40.
 ExpMin= 2.43D-02 ExpMax= 1.61D+04 ExpMxC= 2.43D+03 IAcc=3 IRadAn=         5 AccDes= 0.00D+00
 Harris functional with IExCor=  402 and IRadAn=       5 diagonalized for initial guess.
 HarFok:  IExCor=  402 AccDes= 0.00D+00 IRadAn=         5 IDoV= 1 UseB2=F ITyADJ=14
 ICtDFT=  3500011 ScaDFX=  1.000000  1.000000  1.000000  1.000000
 Defaulting to unpruned grid for atomic number  40.
 FoFCou: FMM=F IPFlag=           0 FMFlag=      100000 FMFlg1=           0
         NFxFlg=           0 DoJE=T BraDBF=F KetDBF=T FulRan=T
         wScrn=  0.000000 ICntrl=       500 IOpCl=  0 I1Cent=   200000004 NGrid=           0
         NMat0=    1 NMatS0=      1 NMatT0=    0 NMatD0=    1 NMtDS0=    0 NMtDT0=    0
 Petite list used in FoFCou.
 Requested convergence on RMS density matrix=1.00D-08 within 128 cycles.
 Requested convergence on MAX density matrix=1.00D-06.
 Requested convergence on             energy=1.00D-06.
 No special actions if energy rises.
 Defaulting to unpruned grid for atomic number  40.
 Defaulting to unpruned grid for atomic number  40.
 Defaulting to unpruned grid for atomic number  40.
 Defaulting to unpruned grid for atomic number  40.
 Defaulting to unpruned grid for atomic number  40.
 Defaulting to unpruned grid for atomic number  40.
 Defaulting to unpruned grid for atomic number  40.
 Defaulting to unpruned grid for atomic number  40.
 Defaulting to unpruned grid for atomic number  40.
 Defaulting to unpruned grid for atomic number  40.
 Defaulting to unpruned grid for atomic number  40.
 Defaulting to unpruned grid for atomic number  40.
 Defaulting to unpruned grid for atomic number  40.
 Defaulting to unpruned grid for atomic number  40.
 Defaulting to unpruned grid for atomic number  40.
 Defaulting to unpruned grid for atomic number  40.
 SCF Done:  E(RB3LYP) =  -3237.55495717     A.U. after   17 cycles
            NFock= 17  Conv=0.53D-08     -V/T= 2.0472

 **********************************************************************

            Population analysis using the SCF Density.

 **********************************************************************

 Orbital symmetries:
       Occupied  (A) (A) (A) (A) (A) (A) (A) (A) (A) (A) (A) (A)
                 (A) (A) (A) (A) (A) (A) (A) (A) (A) (A) (A) (A)
                 (A) (A) (A) (A) (A) (A) (A) (A) (A) (A) (A) (A)
                 (A) (A) (A) (A) (A) (A) (A) (A) (A) (A) (A) (A)
                 (A) (A) (A) (A) (A) (A) (A) (A) (A) (A) (A) (A)
                 (A) (A) (A) (A) (A) (A) (A) (A) (A) (A) (A) (A)
                 (A) (A) (A) (A) (A) (A) (A) (A) (A) (A) (A) (A)
                 (A) (A) (A) (A) (A) (A) (A) (A) (A) (A) (A) (A)
                 (A) (A) (A) (A) (A) (A) (A) (A) (A) (A) (A) (A)
                 (A) (A) (A) (A) (A) (A) (A) (A) (A) (A) (A) (A)
                 (A) (A) (A) (A) (A) (A) (A) (A) (A) (A) (A) (A)
                 (A) (A) (A) (A) (A) (A) (A) (A) (A) (A) (A) (A)
                 (A) (A) (A) (A) (A) (A) (A) (A) (A) (A) (A) (A)
                 (A) (A) (A) (A) (A)
       Virtual   (A) (A) (A) (A) (A) (A) (A) (A) (A) (A) (A) (A)
                 (A) (A) (A) (A) (A) (A) (A) (A) (A) (A) (A) (A)
                 (A) (A) (A) (A) (A) (A) (A) (A) (A) (A) (A) (A)
                 (A) (A) (A) (A) (A) (A) (A) (A) (A) (A) (A) (A)
                 (A) (A) (A) (A) (A) (A) (A) (A) (A) (A) (A) (A)
                 (A) (A) (A) (A) (A) (A) (A) (A) (A) (A) (A) (A)
                 (A) (A) (A) (A) (A) (A) (A) (A) (A) (A) (A) (A)
                 (A) (A) (A) (A) (A) (A) (A) (A) (A) (A) (A) (A)
                 (A) (A) (A) (A) (A) (A) (A) (A) (A) (A) (A) (A)
                 (A) (A) (A) (A) (A) (A) (A) (A) (A) (A) (A) (A)
                 (A) (A) (A) (A) (A) (A) (A) (A) (A) (A) (A) (A)
                 (A) (A) (A) (A) (A) (A) (A) (A) (A) (A) (A) (A)
                 (A) (A) (A) (A) (A) (A) (A) (A) (A) (A) (A) (A)
                 (A) (A) (A) (A) (A) (A) (A) (A) (A) (A) (A) (A)
                 (A) (A) (A) (A) (A) (A) (A) (A) (A) (A) (A) (A)
                 (A) (A) (A) (A) (A) (A) (A) (A) (A) (A) (A) (A)
                 (A) (A) (A) (A) (A) (A) (A) (A) (A) (A) (A) (A)
                 (A) (A) (A) (A) (A) (A) (A) (A) (A) (A) (A) (A)
                 (A) (A) (A) (A) (A) (A) (A) (A) (A) (A) (A) (A)
                 (A) (A) (A) (A) (A) (A) (A) (A) (A) (A) (A) (A)
                 (A) (A) (A) (A) (A) (A) (A) (A) (A) (A) (A) (A)
                 (A) (A) (A) (A) (A) (A) (A) (A) (A) (A) (A) (A)
                 (A) (A) (A) (A) (A) (A) (A) (A) (A) (A) (A) (A)
                 (A) (A) (A) (A) (A) (A) (A) (A) (A) (A) (A) (A)
                 (A) (A) (A) (A) (A) (A) (A) (A) (A) (A) (A) (A)
                 (A) (A) (A) (A) (A) (A) (A) (A) (A) (A) (A) (A)
                 (A) (A) (A) (A) (A) (A) (A) (A) (A) (A) (A) (A)
                 (A) (A) (A) (A) (A) (A) (A) (A) (A) (A) (A) (A)
                 (A) (A) (A) (A) (A) (A) (A) (A) (A) (A) (A) (A)
                 (A) (A) (A) (A) (A) (A) (A) (A) (A) (A) (A) (A)
                 (A) (A) (A) (A) (A) (A) (A) (A) (A) (A) (A) (A)
                 (A) (A) (A) (A) (A) (A) (A) (A) (A) (A) (A) (A)
                 (A) (A) (A) (A) (A) (A) (A) (A) (A) (A) (A) (A)
                 (A) (A) (A) (A) (A) (A) (A) (A) (A) (A) (A) (A)
                 (A) (A) (A) (A) (A) (A) (A) (A) (A) (A) (A) (A)
                 (A) (A) (A) (A) (A) (A) (A) (A) (A) (A) (A) (A)
                 (A) (A) (A) (A) (A) (A) (A)
 The electronic state is 1-A.
 Alpha  occ. eigenvalues --  -66.22163 -66.21930 -66.21408 -66.20285 -19.17316
 Alpha  occ. eigenvalues --  -19.17108 -19.16432 -19.16295 -19.16230 -19.15951
 Alpha  occ. eigenvalues --  -19.15948 -19.15801 -19.15650 -19.15395 -19.15300
 Alpha  occ. eigenvalues --  -19.15047 -19.14761 -19.14685 -19.14462 -19.14404
 Alpha  occ. eigenvalues --  -19.14390 -19.14373 -19.14321 -19.14130 -19.13487
 Alpha  occ. eigenvalues --  -19.13292 -19.12593 -19.12123 -19.11652  -5.36162
 Alpha  occ. eigenvalues --   -5.36144  -5.35604  -5.34494  -3.72175  -3.72126
 Alpha  occ. eigenvalues --   -3.72102  -3.72100  -3.72071  -3.72034  -3.71666
 Alpha  occ. eigenvalues --   -3.71520  -3.71447  -3.70489  -3.70441  -3.70370
 Alpha  occ. eigenvalues --   -2.08127  -2.07090  -2.06861  -2.05107  -1.29152
 Alpha  occ. eigenvalues --   -1.28916  -1.28376  -1.28089  -1.27891  -1.27747
 Alpha  occ. eigenvalues --   -1.27292  -1.27228  -1.26834  -1.25749  -1.25499
 Alpha  occ. eigenvalues --   -1.25167  -1.05412  -1.04529  -1.03181  -1.02091
 Alpha  occ. eigenvalues --   -1.01613  -1.01343  -1.01220  -0.99842  -0.99691
 Alpha  occ. eigenvalues --   -0.98920  -0.98657  -0.98166  -0.98047  -0.97342
 Alpha  occ. eigenvalues --   -0.96718  -0.95516  -0.95271  -0.95188  -0.94976
 Alpha  occ. eigenvalues --   -0.93895  -0.93671  -0.92101  -0.91876  -0.89636
 Alpha  occ. eigenvalues --   -0.88535  -0.61861  -0.59728  -0.58904  -0.56114
 Alpha  occ. eigenvalues --   -0.54522  -0.53801  -0.52537  -0.52258  -0.51630
 Alpha  occ. eigenvalues --   -0.51307  -0.51116  -0.50996  -0.50888  -0.50531
 Alpha  occ. eigenvalues --   -0.50158  -0.49199  -0.48902  -0.47750  -0.46771
 Alpha  occ. eigenvalues --   -0.45690  -0.45588  -0.44764  -0.42857  -0.42198
 Alpha  occ. eigenvalues --   -0.41821  -0.41511  -0.40874  -0.40653  -0.40355
 Alpha  occ. eigenvalues --   -0.39818  -0.39709  -0.39336  -0.39061  -0.38515
 Alpha  occ. eigenvalues --   -0.37960  -0.37591  -0.37497  -0.37283  -0.36875
 Alpha  occ. eigenvalues --   -0.36721  -0.36141  -0.36088  -0.35905  -0.35707
 Alpha  occ. eigenvalues --   -0.35394  -0.35389  -0.35231  -0.35030  -0.35005
 Alpha  occ. eigenvalues --   -0.34709  -0.34267  -0.34211  -0.34079  -0.33695
 Alpha  occ. eigenvalues --   -0.33536  -0.33353  -0.33099  -0.33020  -0.32839
 Alpha  occ. eigenvalues --   -0.32736  -0.32666  -0.32585  -0.32214  -0.32034
 Alpha  occ. eigenvalues --   -0.31851  -0.31550  -0.31304  -0.31114  -0.31047
 Alpha  occ. eigenvalues --   -0.30840  -0.30827  -0.30216  -0.29562  -0.29137
 Alpha  occ. eigenvalues --   -0.28621
 Alpha virt. eigenvalues --   -0.05205  -0.04761  -0.04567  -0.03270  -0.02884
 Alpha virt. eigenvalues --   -0.02647  -0.01887  -0.01551  -0.01366  -0.01028
 Alpha virt. eigenvalues --   -0.00678  -0.00616  -0.00367   0.00032   0.00472
 Alpha virt. eigenvalues --    0.00687   0.00906   0.01433   0.01578   0.01790
 Alpha virt. eigenvalues --    0.02310   0.02481   0.02797   0.02946   0.03257
 Alpha virt. eigenvalues --    0.03800   0.04077   0.04270   0.04966   0.05481
 Alpha virt. eigenvalues --    0.05795   0.06064   0.06217   0.06669   0.07110
 Alpha virt. eigenvalues --    0.08107   0.08311   0.08662   0.09874   0.10282
 Alpha virt. eigenvalues --    0.10629   0.11395   0.11781   0.12601   0.12922
 Alpha virt. eigenvalues --    0.13402   0.13926   0.14555   0.15356   0.15375
 Alpha virt. eigenvalues --    0.15917   0.16268   0.16587   0.16920   0.17395
 Alpha virt. eigenvalues --    0.17746   0.18137   0.18247   0.18668   0.18942
 Alpha virt. eigenvalues --    0.19358   0.19404   0.19886   0.20661   0.20932
 Alpha virt. eigenvalues --    0.21131   0.21370   0.21700   0.22187   0.22406
 Alpha virt. eigenvalues --    0.22661   0.23016   0.23266   0.23596   0.24286
 Alpha virt. eigenvalues --    0.24295   0.24597   0.25077   0.25608   0.25691
 Alpha virt. eigenvalues --    0.26344   0.26836   0.27090   0.27499   0.28307
 Alpha virt. eigenvalues --    0.28388   0.29096   0.29456   0.30075   0.30152
 Alpha virt. eigenvalues --    0.30593   0.31213   0.32085   0.32609   0.32752
 Alpha virt. eigenvalues --    0.33690   0.34315   0.34703   0.35160   0.35220
 Alpha virt. eigenvalues --    0.36237   0.36877   0.37119   0.37485   0.38266
 Alpha virt. eigenvalues --    0.39058   0.39518   0.41269   0.41627   0.41991
 Alpha virt. eigenvalues --    0.42615   0.44658   0.44906   0.46468   0.46714
 Alpha virt. eigenvalues --    0.49133   0.50305   0.52317   0.55424   0.56308
 Alpha virt. eigenvalues --    0.57991   0.59467   0.60352   0.64627   0.66447
 Alpha virt. eigenvalues --    0.68148   0.76090   0.76777   0.77489   0.78666
 Alpha virt. eigenvalues --    0.79777   0.80155   0.80993   0.81382   0.82121
 Alpha virt. eigenvalues --    0.83694   0.84123   0.84671   0.85689   0.86670
 Alpha virt. eigenvalues --    0.86923   0.87563   0.88981   0.89681   0.90265
 Alpha virt. eigenvalues --    0.90739   0.91731   0.92071   0.92716   0.93147
 Alpha virt. eigenvalues --    0.93228   0.94196   0.94730   0.94911   0.95582
 Alpha virt. eigenvalues --    0.96218   0.96586   0.96795   0.97427   0.97600
 Alpha virt. eigenvalues --    0.97724   0.98347   0.98592   0.98790   0.99193
 Alpha virt. eigenvalues --    0.99331   1.00613   1.00884   1.01247   1.01424
 Alpha virt. eigenvalues --    1.02625   1.03108   1.03566   1.03951   1.04622
 Alpha virt. eigenvalues --    1.05012   1.05677   1.06135   1.06422   1.06929
 Alpha virt. eigenvalues --    1.07619   1.08154   1.08232   1.08652   1.09041
 Alpha virt. eigenvalues --    1.09828   1.09927   1.10230   1.11067   1.11824
 Alpha virt. eigenvalues --    1.12537   1.13193   1.13531   1.14008   1.14978
 Alpha virt. eigenvalues --    1.15401   1.16391   1.16650   1.17589   1.17673
 Alpha virt. eigenvalues --    1.18016   1.18376   1.18804   1.19252   1.19783
 Alpha virt. eigenvalues --    1.20183   1.20836   1.21564   1.21712   1.21984
 Alpha virt. eigenvalues --    1.22382   1.23399   1.23925   1.24129   1.25435
 Alpha virt. eigenvalues --    1.26185   1.27388   1.27605   1.27836   1.28733
 Alpha virt. eigenvalues --    1.29324   1.30423   1.30788   1.31595   1.32344
 Alpha virt. eigenvalues --    1.34261   1.34515   1.35380   1.37087   1.38360
 Alpha virt. eigenvalues --    1.42315   1.43719   1.45362   1.45714   1.47322
 Alpha virt. eigenvalues --    1.47801   1.49058   1.50216   1.50952   1.51072
 Alpha virt. eigenvalues --    1.51513   1.52621   1.53717   1.53820   1.54042
 Alpha virt. eigenvalues --    1.54811   1.55496   1.55892   1.56088   1.56485
 Alpha virt. eigenvalues --    1.56924   1.57002   1.57863   1.58378   1.58431
 Alpha virt. eigenvalues --    1.58572   1.59049   1.60000   1.60737   1.60883
 Alpha virt. eigenvalues --    1.61368   1.61796   1.62475   1.62724   1.62859
 Alpha virt. eigenvalues --    1.63227   1.63972   1.64243   1.65108   1.65434
 Alpha virt. eigenvalues --    1.65790   1.66040   1.66541   1.67028   1.67645
 Alpha virt. eigenvalues --    1.67976   1.68620   1.69349   1.70342   1.70985
 Alpha virt. eigenvalues --    1.71494   1.71828   1.72151   1.72493   1.73040
 Alpha virt. eigenvalues --    1.73475   1.73621   1.74543   1.74998   1.75467
 Alpha virt. eigenvalues --    1.76220   1.76555   1.76828   1.77642   1.78013
 Alpha virt. eigenvalues --    1.78214   1.78546   1.78871   1.79309   1.79548
 Alpha virt. eigenvalues --    1.80350   1.80809   1.81084   1.81402   1.81531
 Alpha virt. eigenvalues --    1.81817   1.82291   1.82472   1.82802   1.82947
 Alpha virt. eigenvalues --    1.83378   1.83607   1.84308   1.84971   1.85651
 Alpha virt. eigenvalues --    1.85798   1.86296   1.86390   1.86765   1.86872
 Alpha virt. eigenvalues --    1.87203   1.87786   1.88031   1.88105   1.88828
 Alpha virt. eigenvalues --    1.89457   1.90394   1.91052   1.92099   1.92592
 Alpha virt. eigenvalues --    1.93027   1.93768   1.94475   1.95177   1.97093
 Alpha virt. eigenvalues --    1.97440   1.98303   1.99347   2.01160   2.01694
 Alpha virt. eigenvalues --    2.04373   2.05259   2.08817   2.09118   2.11662
 Alpha virt. eigenvalues --    2.15027   2.19193   2.31958   2.33686   2.34410
 Alpha virt. eigenvalues --    2.34636   2.35038   2.35121   2.36242   2.36779
 Alpha virt. eigenvalues --    2.36963   2.37888   2.38814   2.39679   2.39806
 Alpha virt. eigenvalues --    2.40694   2.41003   2.42404   2.44572   2.45033
 Alpha virt. eigenvalues --    2.46498   2.48018   2.49550   2.51582   2.52184
 Alpha virt. eigenvalues --    2.55803   2.57989   2.58360   2.59502   2.60200
 Alpha virt. eigenvalues --    2.60421   2.61028   2.61752   2.61803   2.62118
 Alpha virt. eigenvalues --    2.62486   2.62655   2.62943   2.63024   2.63139
 Alpha virt. eigenvalues --    2.63524   2.63754   2.64130   2.64562   2.64712
 Alpha virt. eigenvalues --    2.64881   2.65530   2.65565   2.65718   2.65974
 Alpha virt. eigenvalues --    2.67379   2.68407   2.68772   2.69443   2.69611
 Alpha virt. eigenvalues --    2.70415   2.72614   2.73902   2.74065   2.74722
 Alpha virt. eigenvalues --    2.75074   2.76980   2.77049   2.77540   2.77912
 Alpha virt. eigenvalues --    2.80423   2.82376   2.83423   2.84554   2.85231
 Alpha virt. eigenvalues --    2.86702   2.94270   3.40512   3.40758   3.40926
 Alpha virt. eigenvalues --    3.41359   3.41982   3.43365   3.43802   3.45215
 Alpha virt. eigenvalues --    3.46110   3.47034   3.47696   3.48577   3.49788
 Alpha virt. eigenvalues --    3.50414   3.53024   3.54917   3.55311   3.59821
 Alpha virt. eigenvalues --    4.74083   6.26227   6.68316   7.77671
          Condensed to atoms (all electrons):
 Mulliken charges:
               1
     1  Si   1.295873
     2  O   -0.650770
     3  O   -0.649084
     4  O   -0.647740
     5  O   -0.751716
     6  Zr   1.615739
     7  Si   1.130814
     8  Si   1.164615
     9  Si   1.136583
    10  O   -0.820984
    11  Zr   1.493629
    12  O   -0.900385
    13  Zr   1.587909
    14  O   -0.827942
    15  Zr   1.550108
    16  O   -0.626903
    17  O   -0.574088
    18  O   -0.666361
    19  O   -0.627016
    20  O   -0.609029
    21  O   -0.675205
    22  O   -0.577833
    23  O   -0.653150
    24  O   -0.618411
    25  H    0.355052
    26  H    0.334291
    27  H    0.367448
    28  H    0.370481
    29  H    0.365594
    30  H    0.337967
    31  H    0.336714
    32  H    0.415060
    33  H    0.344408
    34  O   -0.695122
    35  H    0.332572
    36  O   -0.706734
    37  H    0.365903
    38  O   -0.748691
    39  H    0.331385
    40  O   -0.763322
    41  H    0.371974
    42  O   -0.693996
    43  H    0.334341
    44  O   -0.698943
    45  H    0.335507
    46  O   -0.762318
    47  H    0.380698
    48  O   -0.742676
    49  H    0.340319
    50  O   -0.685171
    51  H    0.378605
 Sum of Mulliken charges =  -0.00000
 Mulliken charges with hydrogens summed into heavy atoms:
               1
     1  Si   1.295873
     2  O   -0.650770
     3  O   -0.649084
     4  O   -0.647740
     5  O   -0.751716
     6  Zr   1.615739
     7  Si   1.130814
     8  Si   1.164615
     9  Si   1.136583
    10  O   -0.820984
    11  Zr   1.493629
    12  O   -0.900385
    13  Zr   1.587909
    14  O   -0.827942
    15  Zr   1.550108
    16  O   -0.288935
    17  O   -0.237374
    18  O   -0.300768
    19  O   -0.282607
    20  O   -0.238548
    21  O   -0.260145
    22  O   -0.243541
    23  O   -0.298097
    24  O   -0.250962
    34  O   -0.362550
    36  O   -0.340830
    38  O   -0.417306
    40  O   -0.391349
    42  O   -0.359655
    44  O   -0.363437
    46  O   -0.381620
    48  O   -0.402357
    50  O   -0.306567
 Electronic spatial extent (au):  <R**2>=          24371.0368
 Charge=             -0.0000 electrons
 Dipole moment (field-independent basis, Debye):
    X=              1.7693    Y=              4.5752    Z=              0.5660  Tot=              4.9380
 Quadrupole moment (field-independent basis, Debye-Ang):
   XX=           -293.1224   YY=           -258.5524   ZZ=           -262.1842
   XY=              3.4391   XZ=              6.2012   YZ=             -7.8246
 Traceless Quadrupole moment (field-independent basis, Debye-Ang):
   XX=            -21.8361   YY=             12.7340   ZZ=              9.1021
   XY=              3.4391   XZ=              6.2012   YZ=             -7.8246
 Octapole moment (field-independent basis, Debye-Ang**2):
  XXX=            311.9272  YYY=            100.4321  ZZZ=            -36.8034  XYY=            156.9031
  XXY=             71.3702  XXZ=            -46.8663  XZZ=            112.9933  YZZ=              6.2778
  YYZ=            -20.8820  XYZ=             55.4557
 Hexadecapole moment (field-independent basis, Debye-Ang**3):
 XXXX=         -21807.0536 YYYY=          -5681.7351 ZZZZ=          -4757.3744 XXXY=             79.2832
 XXXZ=            -22.8388 YYYX=             27.9509 YYYZ=             15.3499 ZZZX=             26.3942
 ZZZY=            -56.1912 XXYY=          -4542.3768 XXZZ=          -3651.2470 YYZZ=          -1726.9158
 XXYZ=           -484.0545 YYXZ=           -141.0603 ZZXY=            194.3646
 N-N= 5.721972930340D+03 E-N=-1.904459353209D+04  KE= 3.091513768647D+03
   1 Symmetry operations used in ECPInt.
 ECPInt:  NShTT=   21321 NPrTT=  126439 LenC2=   15577 LenP2D=   52482.
 LDataN:  DoStor=T MaxTD1= 6 Len=  172
 Number of processors reduced to  14 by ecpmxn.
 Calling FoFJK, ICntrl=      2127 FMM=F ISym2X=0 I1Cent= 0 IOpClX= 0 NMat=1 NMatS=1 NMatT=0.
 Defaulting to unpruned grid for atomic number  40.
 Defaulting to unpruned grid for atomic number  40.
 Defaulting to unpruned grid for atomic number  40.
 Defaulting to unpruned grid for atomic number  40.
 Defaulting to unpruned grid for atomic number  40.
 Defaulting to unpruned grid for atomic number  40.
 Defaulting to unpruned grid for atomic number  40.
 Defaulting to unpruned grid for atomic number  40.
 Defaulting to unpruned grid for atomic number  40.
 Defaulting to unpruned grid for atomic number  40.
 Defaulting to unpruned grid for atomic number  40.
 Defaulting to unpruned grid for atomic number  40.
 Defaulting to unpruned grid for atomic number  40.
 Defaulting to unpruned grid for atomic number  40.
 Defaulting to unpruned grid for atomic number  40.
 Defaulting to unpruned grid for atomic number  40.
 ***** Axes restored to original set *****
 -------------------------------------------------------------------
 Center     Atomic                   Forces (Hartrees/Bohr)
 Number     Number              X              Y              Z
 -------------------------------------------------------------------
      1       14          -0.002530104    0.000366145   -0.001920546
      2        8           0.000361251   -0.000197599   -0.000687056
      3        8           0.000133912   -0.000091941    0.000178449
      4        8           0.000128551    0.000002219    0.000164030
      5        8          -0.000454996   -0.000085282    0.000630632
      6       40           0.002400690    0.000267752   -0.001839939
      7       14           0.000441047    0.001518107    0.002112209
      8       14          -0.000338031    0.000142851    0.000020036
      9       14          -0.000203174   -0.000110725   -0.000158530
     10        8          -0.000661972    0.000771025    0.000181606
     11       40           0.000369990   -0.000542527    0.000263545
     12        8           0.006515490    0.004935458   -0.005940092
     13       40           0.004411846   -0.008836141    0.010104875
     14        8          -0.000716271   -0.000535963   -0.000062236
     15       40           0.000551991    0.000125937    0.000166369
     16        8           0.000078836   -0.000009458    0.000033806
     17        8           0.000045372   -0.000061504   -0.000012385
     18        8           0.000060536   -0.000036755   -0.000013806
     19        8           0.000193824   -0.000376631    0.000076361
     20        8          -0.000634564    0.000102165   -0.000343406
     21        8          -0.036062830    0.003578179    0.002493338
     22        8           0.000034795    0.000032504    0.000068347
     23        8           0.000071898    0.000011800    0.000028300
     24        8           0.000079500    0.000065949    0.000102425
     25        1          -0.000002995    0.000006195   -0.000012791
     26        1          -0.000005625   -0.000014316   -0.000019244
     27        1          -0.000103816   -0.000120908   -0.000094641
     28        1          -0.000158713    0.000051521    0.000131445
     29        1          -0.000038542    0.000008442   -0.000026403
     30        1          -0.000007178    0.000002223   -0.000019772
     31        1          -0.000005886    0.000044500   -0.000006122
     32        1           0.002260810    0.004519676   -0.006062434
     33        1          -0.000247220   -0.000069445   -0.000128323
     34        8          -0.000021151    0.000056725    0.000040374
     35        1           0.000007110   -0.000005101   -0.000015234
     36        8          -0.000068680    0.000046065   -0.000097456
     37        1           0.000037713   -0.000046338    0.000036830
     38        8           0.000060267    0.000154610   -0.000159809
     39        1          -0.000003904   -0.000020386   -0.000009553
     40        8          -0.000119781    0.000170320   -0.000260961
     41        1          -0.000064829   -0.000104652    0.000235920
     42        8          -0.000096923   -0.000023699    0.000077019
     43        1           0.000007903    0.000006429   -0.000001381
     44        8          -0.000037142   -0.000097178   -0.000081387
     45        1           0.000011040    0.000027025    0.000029807
     46        8           0.000252177    0.000086391   -0.000481970
     47        1          -0.000135100    0.000054939    0.000220020
     48        8           0.000233693    0.000292222   -0.000401559
     49        1          -0.000130360   -0.000158180    0.000085408
     50        8           0.021548743   -0.008794406    0.003993677
     51        1           0.002550803    0.002891762   -0.002617790
 -------------------------------------------------------------------
 Cartesian Forces:  Max     0.036062830 RMS     0.003873487

 GradGradGradGradGradGradGradGradGradGradGradGradGradGradGradGradGradGrad
 Berny optimization.
 FormGI is forming the generalized inverse of G from B-inverse, IUseBI=4.
 Internal  Forces:  Max     0.284198254 RMS     0.028587204
 Search for a local minimum.
 Step number   1 out of a maximum of  229
 All quantities printed in internal units (Hartrees-Bohrs-Radians)
 Mixed Optimization -- RFO/linear search
 Second derivative matrix not updated -- first step.
 ITU=  0
     Eigenvalues ---    0.00230   0.00230   0.00230   0.00230   0.00230
     Eigenvalues ---    0.00230   0.00230   0.00230   0.00230   0.00230
     Eigenvalues ---    0.00230   0.00230   0.00230   0.00230   0.00230
     Eigenvalues ---    0.00230   0.03447   0.03470   0.03516   0.03601
     Eigenvalues ---    0.03614   0.03629   0.03654   0.03686   0.03816
     Eigenvalues ---    0.03823   0.03827   0.03839   0.03923   0.03964
     Eigenvalues ---    0.04008   0.04039   0.06239   0.08354   0.08564
     Eigenvalues ---    0.08974   0.09448   0.10123   0.10678   0.11232
     Eigenvalues ---    0.11368   0.11507   0.11595   0.11636   0.11773
     Eigenvalues ---    0.11825   0.11923   0.12003   0.12146   0.12566
     Eigenvalues ---    0.12661   0.12746   0.12781   0.12915   0.12948
     Eigenvalues ---    0.13420   0.16000   0.16000   0.16000   0.16000
     Eigenvalues ---    0.16000   0.16000   0.16000   0.16000   0.16000
     Eigenvalues ---    0.16000   0.16000   0.16000   0.16000   0.16000
     Eigenvalues ---    0.16000   0.16000   0.16000   0.16000   0.16475
     Eigenvalues ---    0.16653   0.16972   0.17555   0.17903   0.18059
     Eigenvalues ---    0.18629   0.18751   0.19259   0.19512   0.19625
     Eigenvalues ---    0.19663   0.19719   0.19732   0.19849   0.20192
     Eigenvalues ---    0.20247   0.20296   0.20320   0.20376   0.20393
     Eigenvalues ---    0.20422   0.20645   0.20651   0.20806   0.20824
     Eigenvalues ---    0.20868   0.21022   0.21050   0.21076   0.21270
     Eigenvalues ---    0.21906   0.25000   0.25000   0.25000   0.25000
     Eigenvalues ---    0.25000   0.25000   0.40115   0.40361   0.40848
     Eigenvalues ---    0.41777   0.41931   0.42098   0.42374   0.42741
     Eigenvalues ---    0.44274   0.44356   0.44406   0.44546   0.45586
     Eigenvalues ---    0.46106   0.46669   0.47064   0.51271   0.51295
     Eigenvalues ---    0.51607   0.51682   0.51719   0.52103   0.52343
     Eigenvalues ---    0.52513   0.53065   0.54681   0.54684   0.54737
     Eigenvalues ---    0.54745   0.54756   0.54764   0.55003   0.55451
     Eigenvalues ---    0.556801000.000001000.000001000.000001000.00000
     Eigenvalues --- 1000.000001000.000001000.000001000.000001000.00000
     Eigenvalues --- 1000.000001000.000001000.000001000.000001000.00000
     Eigenvalues --- 1000.000001000.000001000.000001000.000001000.00000
     Eigenvalues --- 1000.000001000.000001000.000001000.000001000.00000
     Eigenvalues --- 1000.000001000.000001000.000001000.000001000.00000
     Eigenvalues --- 1000.000001000.000001000.000001000.000001000.00000
     Eigenvalues --- 1000.000001000.000001000.000001000.000001000.00000
     Eigenvalues --- 1000.000001000.000001000.000001000.000001000.00000
     Eigenvalues --- 1000.000001000.000001000.000001000.000001000.00000
     Eigenvalues --- 1000.000001000.000001000.000001000.000001000.00000
     Eigenvalues --- 1000.000001000.000001000.000001000.000001000.00000
     Eigenvalues --- 1000.000001000.000001000.000001000.000001000.00000
     Eigenvalues --- 1000.000001000.000001000.000001000.000001000.00000
     Eigenvalues --- 1000.000001000.000001000.000001000.00000
 RFO step:  Lambda=-2.38890779D-01 EMin= 2.30000000D-03
 Linear search not attempted -- first point.
 Maximum step size (   0.300) exceeded in Quadratic search.
    -- Step size scaled by   0.500
 Iteration  1 RMS(Cart)=  0.25423220 RMS(Int)=  0.01431700
 Iteration  2 RMS(Cart)=  0.21866159 RMS(Int)=  0.00572675
 Iteration  3 RMS(Cart)=  0.01272987 RMS(Int)=  0.00026153
 Iteration  4 RMS(Cart)=  0.00002311 RMS(Int)=  0.00026111
 Iteration  5 RMS(Cart)=  0.00000000 RMS(Int)=  0.00026111
 Iteration  1 RMS(Cart)=  0.00000000 RMS(Int)=  0.00000000
 Variable       Old X    -DE/DX   Delta X   Delta X   Delta X     New X
                                 (Linear)    (Quad)   (Total)
    R1        3.09828  -0.00787   0.00000  -0.00578  -0.00578   3.09250
    R2        3.12499   0.00004   0.00000   0.00003   0.00003   3.12502
    R3        3.09671   0.00004   0.00000   0.00003   0.00003   3.09675
    R4        3.06649   0.03020   0.00000   0.02130   0.02130   3.08779
    R5        3.07712   0.00288   0.00000   0.00206   0.00206   3.07918
    R6        3.11691   0.00020   0.00000   0.00015   0.00015   3.11706
    R7        3.14118   0.00017   0.00000   0.00013   0.00013   3.14131
    R8        3.80050   0.03595   0.00000   0.04341   0.04341   3.84391
    R9        3.64783  -0.00054   0.00000  -0.00060  -0.00060   3.64724
   R10        3.82478   0.00488   0.00000   0.00598   0.00598   3.83075
   R11        3.72226  -0.00064   0.00000  -0.00073  -0.00073   3.72153
   R12        3.15098   0.00044   0.00000   0.00034   0.00034   3.15132
   R13        3.08301   0.00053   0.00000   0.00039   0.00039   3.08339
   R14        3.12149  -0.03075   0.00000  -0.02322  -0.02322   3.09827
   R15        3.12908  -0.00005   0.00000  -0.00004  -0.00004   3.12904
   R16        3.09506  -0.00002   0.00000  -0.00002  -0.00002   3.09504
   R17        3.12711  -0.00002   0.00000  -0.00001  -0.00001   3.12710
   R18        3.09730  -0.00006   0.00000  -0.00004  -0.00004   3.09726
   R19        3.14766  -0.00004   0.00000  -0.00003  -0.00003   3.14763
   R20        3.07084   0.00004   0.00000   0.00003   0.00003   3.07087
   R21        3.84641   0.00052   0.00000   0.00065   0.00065   3.84706
   R22        3.71852  -0.00004   0.00000  -0.00005  -0.00005   3.71847
   R23        3.67541  -0.00004   0.00000  -0.00005  -0.00005   3.67536
   R24        3.83858  -0.00019   0.00000  -0.00024  -0.00024   3.83834
   R25        3.72623   0.03090   0.00000   0.03562   0.03562   3.76185
   R26        3.78034   0.00010   0.00000   0.00012   0.00012   3.78046
   R27        3.78652   0.00003   0.00000   0.00004   0.00004   3.78656
   R28        3.66751  -0.01186   0.00000  -0.01314  -0.01314   3.65437
   R29        3.75387   0.00031   0.00000   0.00037   0.00037   3.75423
   R30        3.75844  -0.00012   0.00000  -0.00014  -0.00014   3.75830
   R31        3.69500  -0.00012   0.00000  -0.00013  -0.00013   3.69487
   R32        3.68179  -0.00008   0.00000  -0.00009  -0.00009   3.68169
   R33        1.82117   0.00002   0.00000   0.00001   0.00001   1.82118
   R34        1.82049   0.00001   0.00000   0.00001   0.00001   1.82050
   R35        1.85304   0.00001   0.00000   0.00001   0.00001   1.85305
   R36        1.82114   0.00006   0.00000   0.00004   0.00004   1.82118
   R37        1.84977   0.00005   0.00000   0.00004   0.00004   1.84981
   R38        1.84500   0.00702   0.00000   0.00462   0.00462   1.84963
   R39        1.82042   0.00001   0.00000   0.00001   0.00001   1.82043
   R40        1.83593   0.00001   0.00000   0.00001   0.00001   1.83594
   R41        1.84272  -0.00015   0.00000  -0.00010  -0.00010   1.84262
   R42        1.81829   0.00001   0.00000   0.00001   0.00001   1.81830
   R43        1.84905  -0.00001   0.00000  -0.00001  -0.00001   1.84905
   R44        1.82067   0.00002   0.00000   0.00001   0.00001   1.82068
   R45        1.85280   0.00026   0.00000   0.00017   0.00017   1.85298
   R46        1.81433   0.00001   0.00000   0.00001   0.00001   1.81434
   R47        1.81233   0.00002   0.00000   0.00002   0.00002   1.81234
   R48        1.84869  -0.00007   0.00000  -0.00004  -0.00004   1.84865
   R49        1.82059   0.00000   0.00000   0.00000   0.00000   1.82060
   R50        1.84112  -0.00216   0.00000  -0.00142  -0.00142   1.83970
    A1        1.89403  -0.04956   0.00000  -0.05721  -0.05702   1.83702
    A2        1.88617  -0.01289   0.00000  -0.01243  -0.01300   1.87317
    A3        1.87938   0.10438   0.00000   0.12917   0.12958   2.00896
    A4        1.91364   0.01506   0.00000   0.00499   0.00377   1.91741
    A5        1.92354  -0.02134   0.00000  -0.02553  -0.02512   1.89841
    A6        1.96515  -0.03532   0.00000  -0.03817  -0.03915   1.92601
    A7        2.84348  -0.13460   0.00000  -0.13777  -0.13777   2.70571
    A8        2.31720   0.00020   0.00000   0.00020   0.00020   2.31741
    A9        2.35610   0.00048   0.00000   0.00050   0.00050   2.35660
   A10        2.28718   0.28420   0.00000   0.00000   0.00000   2.28718
   A11        1.98022  -0.01911   0.00000  -0.02345  -0.02392   1.95630
   A12        1.98270   0.11826   0.00000   0.15072   0.15124   2.13394
   A13        1.99112  -0.03895   0.00000  -0.04524  -0.04578   1.94534
   A14        1.77332  -0.04502   0.00000  -0.05053  -0.05087   1.72245
   A15        1.88957   0.01576   0.00000   0.00261   0.00090   1.89047
   A16        1.82832  -0.03319   0.00000  -0.03716  -0.03726   1.79106
   A17        1.81235  -0.00229   0.00000  -0.00141  -0.00148   1.81087
   A18        1.98544  -0.00505   0.00000  -0.00683  -0.00680   1.97864
   A19        1.86767   0.01289   0.00000   0.01577   0.01573   1.88340
   A20        1.94580   0.00174   0.00000   0.00068   0.00069   1.94649
   A21        1.92845   0.00594   0.00000   0.00779   0.00774   1.93620
   A22        1.92030  -0.01182   0.00000  -0.01417  -0.01414   1.90616
   A23        1.94596  -0.00004   0.00000  -0.00006  -0.00006   1.94590
   A24        1.88055  -0.00000   0.00000  -0.00000  -0.00000   1.88055
   A25        1.93311  -0.00001   0.00000  -0.00002  -0.00002   1.93309
   A26        1.93173   0.00002   0.00000   0.00003   0.00003   1.93176
   A27        1.82723  -0.00001   0.00000  -0.00002  -0.00002   1.82721
   A28        1.94617   0.00005   0.00000   0.00007   0.00007   1.94624
   A29        1.88532  -0.00004   0.00000  -0.00005  -0.00005   1.88527
   A30        1.89442  -0.00008   0.00000  -0.00010  -0.00010   1.89432
   A31        1.95715   0.00015   0.00000   0.00018   0.00018   1.95733
   A32        1.87632   0.00006   0.00000   0.00006   0.00006   1.87637
   A33        1.94135  -0.00007   0.00000  -0.00008  -0.00008   1.94127
   A34        1.90697  -0.00001   0.00000  -0.00001  -0.00001   1.90696
   A35        2.53227   0.00041   0.00000   0.00042   0.00042   2.53269
   A36        1.81826  -0.00012   0.00000  -0.00017  -0.00017   1.81809
   A37        1.87906  -0.00001   0.00000   0.00000   0.00000   1.87907
   A38        2.09284   0.00011   0.00000   0.00014   0.00014   2.09299
   A39        1.80039  -0.00002   0.00000  -0.00005  -0.00005   1.80034
   A40        1.73310  -0.00004   0.00000  -0.00006  -0.00006   1.73304
   A41        2.08557   0.00002   0.00000   0.00005   0.00005   2.08561
   A42        2.29330  -0.10433   0.00000  -0.10678  -0.10678   2.18652
   A43        1.83467  -0.01104   0.00000  -0.01227  -0.01231   1.82235
   A44        1.90443  -0.01028   0.00000  -0.01170  -0.01172   1.89271
   A45        1.85062   0.03385   0.00000   0.04360   0.04365   1.89427
   A46        1.91620   0.00485   0.00000   0.00067   0.00052   1.91671
   A47        1.99552  -0.00718   0.00000  -0.00827  -0.00831   1.98720
   A48        1.95547  -0.00969   0.00000  -0.01099  -0.01102   1.94445
   A49        2.44669  -0.00056   0.00000  -0.00058  -0.00058   2.44612
   A50        1.83016  -0.00022   0.00000  -0.00029  -0.00029   1.82987
   A51        1.92532   0.00006   0.00000   0.00007   0.00007   1.92539
   A52        1.89530   0.00003   0.00000   0.00001   0.00001   1.89531
   A53        1.89947   0.00012   0.00000   0.00015   0.00015   1.89962
   A54        1.93645   0.00001   0.00000   0.00001   0.00001   1.93646
   A55        1.97197  -0.00001   0.00000   0.00002   0.00002   1.97199
   A56        2.03455   0.00002   0.00000   0.00003   0.00003   2.03458
   A57        2.01642   0.00007   0.00000   0.00009   0.00009   2.01651
   A58        1.93923  -0.00004   0.00000  -0.00005  -0.00005   1.93919
   A59        2.03937   0.00025   0.00000   0.00031   0.00031   2.03968
   A60        1.98603   0.00035   0.00000   0.00043   0.00043   1.98647
[...]
     48          8           0        3.614721    0.397896    2.957817
     49          1           0        3.956327    0.698202    3.807081
     50          8           0        1.022097   -1.315900    3.981107
     51          1           0        0.065525   -1.191028    4.115871
 ---------------------------------------------------------------------
 Rotational constants (GHZ):           0.0878737           0.0391670           0.0372588

 **********************************************************************

            Population analysis using the SCF Density.

 **********************************************************************

 Orbital symmetries:
       Occupied  (A) (A) (A) (A) (A) (A) (A) (A) (A) (A) (A) (A)
                 (A) (A) (A) (A) (A) (A) (A) (A) (A) (A) (A) (A)
                 (A) (A) (A) (A) (A) (A) (A) (A) (A) (A) (A) (A)
                 (A) (A) (A) (A) (A) (A) (A) (A) (A) (A) (A) (A)
                 (A) (A) (A) (A) (A) (A) (A) (A) (A) (A) (A) (A)
                 (A) (A) (A) (A) (A) (A) (A) (A) (A) (A) (A) (A)
                 (A) (A) (A) (A) (A) (A) (A) (A) (A) (A) (A) (A)
                 (A) (A) (A) (A) (A) (A) (A) (A) (A) (A) (A) (A)
                 (A) (A) (A) (A) (A) (A) (A) (A) (A) (A) (A) (A)
                 (A) (A) (A) (A) (A) (A) (A) (A) (A) (A) (A) (A)
                 (A) (A) (A) (A) (A) (A) (A) (A) (A) (A) (A) (A)
                 (A) (A) (A) (A) (A) (A) (A) (A) (A) (A) (A) (A)
                 (A) (A) (A) (A) (A) (A) (A) (A) (A) (A) (A) (A)
                 (A) (A) (A) (A) (A)
       Virtual   (A) (A) (A) (A) (A) (A) (A) (A) (A) (A) (A) (A)
                 (A) (A) (A) (A) (A) (A) (A) (A) (A) (A) (A) (A)
                 (A) (A) (A) (A) (A) (A) (A) (A) (A) (A) (A) (A)
                 (A) (A) (A) (A) (A) (A) (A) (A) (A) (A) (A) (A)
                 (A) (A) (A) (A) (A) (A) (A) (A) (A) (A) (A) (A)
                 (A) (A) (A) (A) (A) (A) (A) (A) (A) (A) (A) (A)
                 (A) (A) (A) (A) (A) (A) (A) (A) (A) (A) (A) (A)
                 (A) (A) (A) (A) (A) (A) (A) (A) (A) (A) (A) (A)
                 (A) (A) (A) (A) (A) (A) (A) (A) (A) (A) (A) (A)
                 (A) (A) (A) (A) (A) (A) (A) (A) (A) (A) (A) (A)
                 (A) (A) (A) (A) (A) (A) (A) (A) (A) (A) (A) (A)
                 (A) (A) (A) (A) (A) (A) (A) (A) (A) (A) (A) (A)
                 (A) (A) (A) (A) (A) (A) (A) (A) (A) (A) (A) (A)
                 (A) (A) (A) (A) (A) (A) (A) (A) (A) (A) (A) (A)
                 (A) (A) (A) (A) (A) (A) (A) (A) (A) (A) (A) (A)
                 (A) (A) (A) (A) (A) (A) (A) (A) (A) (A) (A) (A)
                 (A) (A) (A) (A) (A) (A) (A) (A) (A) (A) (A) (A)
                 (A) (A) (A) (A) (A) (A) (A) (A) (A) (A) (A) (A)
                 (A) (A) (A) (A) (A) (A) (A) (A) (A) (A) (A) (A)
                 (A) (A) (A) (A) (A) (A) (A) (A) (A) (A) (A) (A)
                 (A) (A) (A) (A) (A) (A) (A) (A) (A) (A) (A) (A)
                 (A) (A) (A) (A) (A) (A) (A) (A) (A) (A) (A) (A)
                 (A) (A) (A) (A) (A) (A) (A) (A) (A) (A) (A) (A)
                 (A) (A) (A) (A) (A) (A) (A) (A) (A) (A) (A) (A)
                 (A) (A) (A) (A) (A) (A) (A) (A) (A) (A) (A) (A)
                 (A) (A) (A) (A) (A) (A) (A) (A) (A) (A) (A) (A)
                 (A) (A) (A) (A) (A) (A) (A) (A) (A) (A) (A) (A)
                 (A) (A) (A) (A) (A) (A) (A) (A) (A) (A) (A) (A)
                 (A) (A) (A) (A) (A) (A) (A) (A) (A) (A) (A) (A)
                 (A) (A) (A) (A) (A) (A) (A) (A) (A) (A) (A) (A)
                 (A) (A) (A) (A) (A) (A) (A) (A) (A) (A) (A) (A)
                 (A) (A) (A) (A) (A) (A) (A) (A) (A) (A) (A) (A)
                 (A) (A) (A) (A) (A) (A) (A) (A) (A) (A) (A) (A)
                 (A) (A) (A) (A) (A) (A) (A) (A) (A) (A) (A) (A)
                 (A) (A) (A) (A) (A) (A) (A) (A) (A) (A) (A) (A)
                 (A) (A) (A) (A) (A) (A) (A) (A) (A) (A) (A) (A)
                 (A) (A) (A) (A) (A) (A) (A)
 The electronic state is 1-A.
 Alpha  occ. eigenvalues --  -66.22046 -66.21883 -66.21434 -66.20229 -19.17223
 Alpha  occ. eigenvalues --  -19.17059 -19.16367 -19.16363 -19.16189 -19.16004
 Alpha  occ. eigenvalues --  -19.15821 -19.15758 -19.15746 -19.15741 -19.15583
 Alpha  occ. eigenvalues --  -19.15368 -19.15205 -19.14695 -19.14615 -19.14353
 Alpha  occ. eigenvalues --  -19.14241 -19.14215 -19.14144 -19.14024 -19.13361
 Alpha  occ. eigenvalues --  -19.13221 -19.12566 -19.12132 -19.11633  -5.36114
 Alpha  occ. eigenvalues --   -5.36021  -5.35629  -5.34437  -3.72077  -3.72054
 Alpha  occ. eigenvalues --   -3.72051  -3.72022  -3.71982  -3.71907  -3.71689
 Alpha  occ. eigenvalues --   -3.71546  -3.71472  -3.70433  -3.70382  -3.70313
 Alpha  occ. eigenvalues --   -2.08228  -2.06888  -2.06760  -2.05075  -1.29281
 Alpha  occ. eigenvalues --   -1.28888  -1.28482  -1.27935  -1.27699  -1.27635
 Alpha  occ. eigenvalues --   -1.27128  -1.27070  -1.26705  -1.25716  -1.25471
 Alpha  occ. eigenvalues --   -1.25118  -1.05329  -1.04395  -1.03110  -1.01996
 Alpha  occ. eigenvalues --   -1.01467  -1.01224  -1.01019  -0.99779  -0.99512
 Alpha  occ. eigenvalues --   -0.98840  -0.98594  -0.98324  -0.97969  -0.97419
 Alpha  occ. eigenvalues --   -0.96631  -0.96358  -0.95424  -0.94977  -0.94903
 Alpha  occ. eigenvalues --   -0.93884  -0.93666  -0.92081  -0.91088  -0.89497
 Alpha  occ. eigenvalues --   -0.88415  -0.61675  -0.59631  -0.58855  -0.55915
 Alpha  occ. eigenvalues --   -0.54484  -0.53672  -0.52390  -0.52137  -0.51512
 Alpha  occ. eigenvalues --   -0.51337  -0.51059  -0.51014  -0.50869  -0.50202
 Alpha  occ. eigenvalues --   -0.50064  -0.49092  -0.48813  -0.47751  -0.46757
 Alpha  occ. eigenvalues --   -0.45536  -0.45424  -0.44767  -0.42735  -0.42116
 Alpha  occ. eigenvalues --   -0.41508  -0.41404  -0.40569  -0.40322  -0.40274
 Alpha  occ. eigenvalues --   -0.39695  -0.39548  -0.39210  -0.38921  -0.38404
 Alpha  occ. eigenvalues --   -0.37837  -0.37533  -0.37435  -0.37276  -0.36787
 Alpha  occ. eigenvalues --   -0.36709  -0.36096  -0.35957  -0.35778  -0.35603
 Alpha  occ. eigenvalues --   -0.35371  -0.35269  -0.35137  -0.35019  -0.34934
 Alpha  occ. eigenvalues --   -0.34647  -0.34280  -0.34241  -0.34159  -0.33949
 Alpha  occ. eigenvalues --   -0.33713  -0.33462  -0.33406  -0.33183  -0.33028
 Alpha  occ. eigenvalues --   -0.32830  -0.32531  -0.32503  -0.32212  -0.31992
 Alpha  occ. eigenvalues --   -0.31756  -0.31687  -0.31431  -0.31117  -0.30976
 Alpha  occ. eigenvalues --   -0.30786  -0.30749  -0.30155  -0.29505  -0.29130
 Alpha  occ. eigenvalues --   -0.28636
 Alpha virt. eigenvalues --   -0.05156  -0.04781  -0.04406  -0.03356  -0.02844
 Alpha virt. eigenvalues --   -0.02639  -0.01842  -0.01538  -0.01291  -0.01141
 Alpha virt. eigenvalues --   -0.00672  -0.00530  -0.00293   0.00046   0.00558
 Alpha virt. eigenvalues --    0.00722   0.00976   0.01384   0.01542   0.01880
 Alpha virt. eigenvalues --    0.02411   0.02538   0.02862   0.03052   0.03182
 Alpha virt. eigenvalues --    0.03860   0.04060   0.04266   0.05028   0.05441
 Alpha virt. eigenvalues --    0.05737   0.05869   0.06251   0.06693   0.07174
 Alpha virt. eigenvalues --    0.08124   0.08307   0.08692   0.09527   0.10306
 Alpha virt. eigenvalues --    0.10535   0.11173   0.12083   0.12514   0.12864
 Alpha virt. eigenvalues --    0.13459   0.13881   0.14592   0.15049   0.15285
 Alpha virt. eigenvalues --    0.15846   0.16264   0.16701   0.16792   0.16950
 Alpha virt. eigenvalues --    0.17572   0.18107   0.18172   0.18297   0.18823
 Alpha virt. eigenvalues --    0.19081   0.19460   0.19612   0.20357   0.20891
 Alpha virt. eigenvalues --    0.21125   0.21268   0.21573   0.22268   0.22282
 Alpha virt. eigenvalues --    0.22590   0.22689   0.22953   0.23448   0.24237
 Alpha virt. eigenvalues --    0.24304   0.24471   0.24885   0.25201   0.25735
 Alpha virt. eigenvalues --    0.26078   0.26768   0.26974   0.27446   0.27646
 Alpha virt. eigenvalues --    0.28284   0.28555   0.29531   0.30029   0.30250
 Alpha virt. eigenvalues --    0.30746   0.31117   0.31496   0.32056   0.32911
 Alpha virt. eigenvalues --    0.33306   0.33911   0.34152   0.34644   0.35200
 Alpha virt. eigenvalues --    0.36253   0.36767   0.37023   0.37870   0.38201
 Alpha virt. eigenvalues --    0.38576   0.39562   0.40940   0.41302   0.41784
 Alpha virt. eigenvalues --    0.42345   0.44556   0.45186   0.46441   0.46963
 Alpha virt. eigenvalues --    0.49302   0.50143   0.52220   0.55843   0.56407
 Alpha virt. eigenvalues --    0.58146   0.59528   0.60376   0.64438   0.66674
 Alpha virt. eigenvalues --    0.67783   0.76621   0.76742   0.78579   0.79701
 Alpha virt. eigenvalues --    0.80180   0.81038   0.81232   0.81941   0.83365
 Alpha virt. eigenvalues --    0.83688   0.83947   0.84841   0.85951   0.86739
 Alpha virt. eigenvalues --    0.86957   0.87824   0.88918   0.89686   0.90448
 Alpha virt. eigenvalues --    0.90795   0.91674   0.92097   0.92433   0.93192
 Alpha virt. eigenvalues --    0.93322   0.93842   0.94422   0.94956   0.95682
 Alpha virt. eigenvalues --    0.96220   0.96671   0.96733   0.97396   0.97587
 Alpha virt. eigenvalues --    0.97657   0.98282   0.98527   0.98591   0.99159
 Alpha virt. eigenvalues --    0.99413   1.00083   1.00627   1.00954   1.01356
 Alpha virt. eigenvalues --    1.02326   1.02979   1.03226   1.03492   1.03896
 Alpha virt. eigenvalues --    1.04679   1.05534   1.05844   1.06285   1.06766
 Alpha virt. eigenvalues --    1.07352   1.07606   1.08172   1.08785   1.09110
 Alpha virt. eigenvalues --    1.09368   1.09496   1.10551   1.10717   1.11093
 Alpha virt. eigenvalues --    1.12052   1.12962   1.13381   1.13871   1.14395
 Alpha virt. eigenvalues --    1.14768   1.15836   1.16218   1.16788   1.17238
 Alpha virt. eigenvalues --    1.17652   1.18239   1.18703   1.18943   1.19250
 Alpha virt. eigenvalues --    1.20009   1.20355   1.20781   1.21267   1.21848
 Alpha virt. eigenvalues --    1.22411   1.22815   1.23521   1.24337   1.24419
 Alpha virt. eigenvalues --    1.25646   1.26586   1.27045   1.27547   1.27865
 Alpha virt. eigenvalues --    1.29269   1.29694   1.30962   1.31712   1.32406
 Alpha virt. eigenvalues --    1.33588   1.34363   1.35323   1.37364   1.38209
 Alpha virt. eigenvalues --    1.42336   1.43512   1.44908   1.45565   1.47205
 Alpha virt. eigenvalues --    1.47939   1.49208   1.50035   1.50431   1.51109
 Alpha virt. eigenvalues --    1.51668   1.52102   1.53636   1.54008   1.54351
 Alpha virt. eigenvalues --    1.55267   1.55430   1.56039   1.56273   1.56565
 Alpha virt. eigenvalues --    1.56866   1.57484   1.57738   1.58201   1.58317
 Alpha virt. eigenvalues --    1.58649   1.58977   1.59320   1.60083   1.60341
 Alpha virt. eigenvalues --    1.61145   1.62235   1.62374   1.62471   1.62878
 Alpha virt. eigenvalues --    1.63009   1.63846   1.63970   1.64488   1.64795
 Alpha virt. eigenvalues --    1.65509   1.65750   1.66263   1.66839   1.67001
 Alpha virt. eigenvalues --    1.67724   1.68194   1.68886   1.70506   1.70901
 Alpha virt. eigenvalues --    1.71378   1.71808   1.71919   1.72490   1.72654
 Alpha virt. eigenvalues --    1.73393   1.73582   1.74231   1.74756   1.75365
 Alpha virt. eigenvalues --    1.75391   1.76408   1.76914   1.77484   1.77887
 Alpha virt. eigenvalues --    1.78212   1.78449   1.78654   1.79061   1.79387
 Alpha virt. eigenvalues --    1.79782   1.80573   1.80771   1.81146   1.81499
 Alpha virt. eigenvalues --    1.81699   1.82193   1.82502   1.82854   1.83110
 Alpha virt. eigenvalues --    1.83598   1.83801   1.84232   1.85325   1.85440
 Alpha virt. eigenvalues --    1.85851   1.86272   1.86466   1.86848   1.86923
 Alpha virt. eigenvalues --    1.87131   1.87569   1.88263   1.88782   1.89419
 Alpha virt. eigenvalues --    1.90237   1.91020   1.91121   1.91624   1.92720
 Alpha virt. eigenvalues --    1.92890   1.93417   1.94476   1.95308   1.97039
 Alpha virt. eigenvalues --    1.97834   1.98726   1.99599   2.00858   2.01732
 Alpha virt. eigenvalues --    2.04577   2.05162   2.08373   2.09719   2.11722
 Alpha virt. eigenvalues --    2.14953   2.19017   2.32646   2.33892   2.34133
 Alpha virt. eigenvalues --    2.34520   2.35074   2.35736   2.36327   2.36596
 Alpha virt. eigenvalues --    2.37061   2.37984   2.38182   2.39701   2.39842
 Alpha virt. eigenvalues --    2.40064   2.40672   2.41132   2.42380   2.44535
 Alpha virt. eigenvalues --    2.45428   2.46459   2.48220   2.49882   2.52558
 Alpha virt. eigenvalues --    2.55624   2.56382   2.58463   2.59024   2.59738
 Alpha virt. eigenvalues --    2.60166   2.60836   2.61155   2.61706   2.61995
 Alpha virt. eigenvalues --    2.62086   2.62392   2.62531   2.62822   2.63011
 Alpha virt. eigenvalues --    2.63037   2.63188   2.63575   2.63771   2.64232
 Alpha virt. eigenvalues --    2.64552   2.64665   2.65556   2.65615   2.65738
 Alpha virt. eigenvalues --    2.65958   2.66690   2.67494   2.68557   2.69298
 Alpha virt. eigenvalues --    2.69715   2.70636   2.70687   2.73101   2.74503
 Alpha virt. eigenvalues --    2.74560   2.74635   2.76658   2.76706   2.77421
 Alpha virt. eigenvalues --    2.77724   2.78342   2.82204   2.82975   2.84912
 Alpha virt. eigenvalues --    2.86762   2.92060   3.40461   3.40779   3.40951
 Alpha virt. eigenvalues --    3.41392   3.41911   3.43420   3.43950   3.45050
 Alpha virt. eigenvalues --    3.46080   3.46570   3.47091   3.47791   3.48906
 Alpha virt. eigenvalues --    3.49577   3.52344   3.54352   3.55088   3.55458
 Alpha virt. eigenvalues --    4.74467   6.27657   6.71867   7.79337
          Condensed to atoms (all electrons):
 Mulliken charges:
               1
     1  Si   1.302736
     2  O   -0.659223
     3  O   -0.649050
     4  O   -0.648432
     5  O   -0.751611
     6  Zr   1.597350
     7  Si   1.132429
     8  Si   1.164854
     9  Si   1.137121
    10  O   -0.819852
    11  Zr   1.497221
    12  O   -0.865947
    13  Zr   1.590048
    14  O   -0.827883
    15  Zr   1.550172
    16  O   -0.627240
    17  O   -0.573516
    18  O   -0.668878
    19  O   -0.626732
    20  O   -0.610145
    21  O   -0.644520
    22  O   -0.578527
    23  O   -0.651911
    24  O   -0.618936
    25  H    0.354939
    26  H    0.334812
    27  H    0.367834
    28  H    0.371387
    29  H    0.366283
    30  H    0.337982
    31  H    0.337064
    32  H    0.382163
    33  H    0.344158
    34  O   -0.695537
    35  H    0.332509
    36  O   -0.706558
    37  H    0.365809
    38  O   -0.748861
    39  H    0.331450
    40  O   -0.762922
    41  H    0.371398
    42  O   -0.693800
    43  H    0.334003
    44  O   -0.698964
    45  H    0.335342
    46  O   -0.763615
    47  H    0.380947
    48  O   -0.742815
    49  H    0.340383
    50  O   -0.692050
    51  H    0.367136
 Sum of Mulliken charges =  -0.00000
 Mulliken charges with hydrogens summed into heavy atoms:
               1
     1  Si   1.302736
     2  O   -0.659223
     3  O   -0.649050
     4  O   -0.648432
     5  O   -0.751611
     6  Zr   1.597350
     7  Si   1.132429
     8  Si   1.164854
     9  Si   1.137121
    10  O   -0.819852
    11  Zr   1.497221
    12  O   -0.865947
    13  Zr   1.590048
    14  O   -0.827883
    15  Zr   1.550172
    16  O   -0.289258
    17  O   -0.236452
    18  O   -0.302595
    19  O   -0.282574
    20  O   -0.238758
    21  O   -0.262358
    22  O   -0.243715
    23  O   -0.296972
    24  O   -0.251102
    34  O   -0.363029
    36  O   -0.340750
    38  O   -0.417411
    40  O   -0.391524
    42  O   -0.359797
    44  O   -0.363622
    46  O   -0.382668
    48  O   -0.402433
    50  O   -0.324914
 Electronic spatial extent (au):  <R**2>=          24710.9592
 Charge=              0.0000 electrons
 Dipole moment (field-independent basis, Debye):
    X=              2.1471    Y=              4.4477    Z=              0.8560  Tot=              5.0125
 Quadrupole moment (field-independent basis, Debye-Ang):
   XX=           -292.4963   YY=           -258.5079   ZZ=           -261.3250
   XY=              3.7800   XZ=              7.4579   YZ=             -8.4995
 Traceless Quadrupole moment (field-independent basis, Debye-Ang):
   XX=            -21.7199   YY=             12.2685   ZZ=              9.4514
   XY=              3.7800   XZ=              7.4579   YZ=             -8.4995
 Octapole moment (field-independent basis, Debye-Ang**2):
  XXX=            318.8468  YYY=             98.0137  ZZZ=            -54.2816  XYY=            152.4515
  XXY=             71.2156  XXZ=            -27.6727  XZZ=            127.7321  YZZ=              7.5326
  YYZ=            -13.5127  XYZ=             59.7508
 Hexadecapole moment (field-independent basis, Debye-Ang**3):
 XXXX=         -22259.3574 YYYY=          -5538.4782 ZZZZ=          -4947.5445 XXXY=            172.3902
 XXXZ=             86.5617 YYYX=             25.9697 YYYZ=              8.7661 ZZZX=             15.6475
 ZZZY=            -76.5632 XXYY=          -4566.8513 XXZZ=          -3758.6531 YYZZ=          -1724.5083
 XXYZ=           -502.1436 YYXZ=           -169.3798 ZZXY=            182.8801
 N-N= 5.689454667489D+03 E-N=-1.897955892536D+04  KE= 3.091318870436D+03
 1\1\GINC-GRA701\FOpt\RB3LYP\Gen\H18O25Si4Zr4\SARASHS\24-Jun-2020\0\\#n
  B3LYP/GEN PSEUDO=READ Opt(modredundant)\\Title\\0,1\Si,-2.7733678568,
 0.6148183607,-0.6735676144\O,-2.6784659437,-0.0069643194,0.8445553176\
 O,-3.8018021125,1.9085088996,-0.6575871755\O,-3.366369712,-0.545866834
 2,-1.6657417623\O,-1.2763535085,1.0866173982,-1.0887153772\Zr,0.523122
 9909,0.6411155542,-0.2899933342\Si,-3.1353635124,-0.399568107,2.361341
 9184\Si,-5.4241293534,2.0564270017,-0.4006674942\Si,-4.4922182121,-1.7
 628121329,-1.5596961679\O,1.2331007994,-1.0301728735,-0.9411241436\Zr,
 2.8325420535,-2.2884395419,-0.8769283672\O,0.5772410838,0.3406857372,1
 .7152390448\Zr,1.7507862878,-0.7875562695,2.8269846792\O,1.8712645987,
 2.0364580319,-0.6147730018\Zr,3.7199103486,2.5628792169,-0.1108714284\
 O,-6.2933771689,1.7157287289,-1.7675648941\O,-5.7122719603,3.589018108
 7,0.0991541109\O,-5.939038672,0.9451845649,0.7124020091\O,-3.610726653
 6,-1.9926293603,2.2266160373\O,-4.330415239,0.5322996626,2.9631335388\
 O,-1.7919861746,-0.2641673144,3.3112953724\O,-4.6424237783,-2.44916872
 45,-3.0402069223\O,-5.9649785185,-1.0886382928,-1.1702302377\O,-4.0940
 928661,-2.8664019715,-0.4353856295\H,-6.2923324796,-0.4299172238,-1.80
 47336222\H,-3.8234609391,-2.7433005008,-3.4535770286\H,-3.8781639746,-
 2.5949939461,0.4760052638\H,-5.0505439889,0.7217102182,2.3271614224\H,
 -6.1433174406,0.0844212579,0.2885984922\H,-6.2029402254,2.3334367947,-
 2.5017075149\H,-4.9511452766,4.0611823835,0.4539921639\H,-1.0744784568
 ,0.1705266802,2.8109845617\H,-4.1864585824,-2.3361846892,2.9189801943\
 O,3.1173149342,-2.8032466023,-2.7545724857\H,3.7737987997,-2.561724326
 8,-3.4152391057\O,4.4057416873,-1.2185867706,-0.4704389415\H,4.6250051
 282,-0.4884610504,0.1427565842\O,2.6278587633,-4.1345416353,-0.0558358
 53\H,2.6963845283,-4.9601970888,-0.5476638446\O,4.3728835215,1.1007381
 31,1.0687499588\H,4.2100363414,0.9248848315,2.0193049072\O,4.859847917
 2,2.6581455191,-1.6964279103\H,5.2903271907,3.2374563977,-2.3295602704
 \O,3.6343679901,4.2488099723,0.8614830381\H,3.1726938313,5.015549088,1
 .2060545558\O,2.4104422974,-2.2234854204,1.5975966604\H,2.4040853563,-
 3.2014030803,1.5705737353\O,3.2974410664,0.2984761834,3.4928797094\H,3
 .5782610172,0.5720255345,4.3729011156\O,0.6460599683,-1.4503370308,4.2
 788509069\H,-0.3179858951,-1.3310391502,4.3507448287\\Version=ES64L-G1
 6RevB.01\State=1-A\HF=-3237.5673256\RMSD=7.488e-09\RMSF=2.178e-04\Dipo
 le=0.8132418,1.739329,0.4498887\Quadrupole=-16.8263904,9.5280561,7.298
 3343,3.0262092,4.0066453,-6.0369631\PG=C01 [X(H18O25Si4Zr4)]\\@


 IT'S WHAT YOU LEARN AFTER YOU KNOW IT ALL
 THAT COUNTS.
 Job cpu time:       0 days 23 hours  3 minutes 27.8 seconds.
 Elapsed time:       0 days  1 hours 26 minutes 56.6 seconds.
 File lengths (MBytes):  RWF=    218 Int=      0 D2E=      0 Chk=     28 Scr=      1
 Normal termination of Gaussian 16 at Wed Jun 24 15:37:28 2020.
