 Entering Gaussian System, Link 0=g16
 Initial command:
 /opt/software/gaussian/g16.b01/l1.exe "/localscratch/sarashs.33453294.0/Gau-3742.inp" -scrdir="/localscratch/sarashs.33453294.0/"
 Entering Link 1 = /opt/software/gaussian/g16.b01/l1.exe PID=      3743.
  
 Copyright (c) 1988-2017, Gaussian, Inc.  All Rights Reserved.
  
 This is part of the Gaussian(R) 16 program.  It is based on
 the Gaussian(R) 09 system (copyright 2009, Gaussian, Inc.),
 the Gaussian(R) 03 system (copyright 2003, Gaussian, Inc.),
 the Gaussian(R) 98 system (copyright 1998, Gaussian, Inc.),
 the Gaussian(R) 94 system (copyright 1995, Gaussian, Inc.),
 the Gaussian 92(TM) system (copyright 1992, Gaussian, Inc.),
 the Gaussian 90(TM) system (copyright 1990, Gaussian, Inc.),
 the Gaussian 88(TM) system (copyright 1988, Gaussian, Inc.),
 the Gaussian 86(TM) system (copyright 1986, Carnegie Mellon
 University), and the Gaussian 82(TM) system (copyright 1983,
 Carnegie Mellon University). Gaussian is a federally registered
 trademark of Gaussian, Inc.
  
 This software contains proprietary and confidential information,
 including trade secrets, belonging to Gaussian, Inc.
  
 This software is provided under written license and may be
 used, copied, transmitted, or stored only in accord with that
 written license.
  
 The following legend is applicable only to US Government
 contracts under FAR:
  
                    RESTRICTED RIGHTS LEGEND
  
 Use, reproduction and disclosure by the US Government is
 subject to restrictions as set forth in subparagraphs (a)
 and (c) of the Commercial Computer Software - Restricted
 Rights clause in FAR 52.227-19.
  
 Gaussian, Inc.
 340 Quinnipiac St., Bldg. 40, Wallingford CT 06492
  
  
 ---------------------------------------------------------------
 Warning -- This program may not be used in any manner that
 competes with the business of Gaussian, Inc. or will provide
 assistance to any competitor of Gaussian, Inc.  The licensee
 of this program is prohibited from giving any competitor of
 Gaussian, Inc. access to this program.  By using this program,
 the user acknowledges that Gaussian, Inc. is engaged in the
 business of creating and licensing software in the field of
 computational chemistry and represents and warrants to the
 licensee that it is not a competitor of Gaussian, Inc. and that
 it will not use this program in any manner prohibited above.
 ---------------------------------------------------------------
  

 Cite this work as:
 Gaussian 16, Revision B.01,
 M. J. Frisch, G. W. Trucks, H. B. Schlegel, G. E. Scuseria, 
 M. A. Robb, J. R. Cheeseman, G. Scalmani, V. Barone, 
 G. A. Petersson, H. Nakatsuji, X. Li, M. Caricato, A. V. Marenich, 
 J. Bloino, B. G. Janesko, R. Gomperts, B. Mennucci, H. P. Hratchian, 
 J. V. Ortiz, A. F. Izmaylov, J. L. Sonnenberg, D. Williams-Young, 
 F. Ding, F. Lipparini, F. Egidi, J. Goings, B. Peng, A. Petrone, 
 T. Henderson, D. Ranasinghe, V. G. Zakrzewski, J. Gao, N. Rega, 
 G. Zheng, W. Liang, M. Hada, M. Ehara, K. Toyota, R. Fukuda, 
 J. Hasegawa, M. Ishida, T. Nakajima, Y. Honda, O. Kitao, H. Nakai, 
 T. Vreven, K. Throssell, J. A. Montgomery, Jr., J. E. Peralta, 
 F. Ogliaro, M. J. Bearpark, J. J. Heyd, E. N. Brothers, K. N. Kudin, 
 V. N. Staroverov, T. A. Keith, R. Kobayashi, J. Normand, 
 K. Raghavachari, A. P. Rendell, J. C. Burant, S. S. Iyengar, 
 J. Tomasi, M. Cossi, J. M. Millam, M. Klene, C. Adamo, R. Cammi, 
 J. W. Ochterski, R. L. Martin, K. Morokuma, O. Farkas, 
 J. B. Foresman, and D. J. Fox, Gaussian, Inc., Wallingford CT, 2016.
 
 ******************************************
 Gaussian 16:  ES64L-G16RevB.01 20-Dec-2017
                24-Jun-2020 
 ******************************************
 %NProcShared=16
 Will use up to   16 processors via shared memory.
 ------------------------------------------
 #n B3LYP/GEN PSEUDO=READ Opt(modredundant)
 ------------------------------------------
 1/18=120,19=15,26=3,38=1/1,3;
 2/9=110,12=2,17=6,18=5,40=1/2;
 3/5=7,11=2,16=1,17=8,25=1,30=1,71=1,74=-5/1,2,3;
 4//1;
 5/5=2,38=5/2;
 6/7=2,8=2,9=2,10=2,28=1/1;
 7//1,2,3,16;
 1/18=20,19=15,26=3/3(2);
 2/9=110/2;
 99//99;
 2/9=110/2;
 3/5=7,6=1,11=2,16=1,17=8,25=1,30=1,71=1,74=-5,82=7/1,2,3;
 4/5=5,16=3,69=1/1;
 5/5=2,38=5/2;
 7//1,2,3,16;
 1/18=20,19=15,26=3/3(-5);
 2/9=110/2;
 6/7=2,8=2,9=2,10=2,19=2,28=1/1;
 99/9=1/99;
 -----
 Title
 -----
 Symbolic Z-matrix:
 Charge =  0 Multiplicity = 1
 Si                   -2.76356   0.50373  -0.80236 
 O                    -2.64408  -0.06281   0.73154 
 O                    -3.71347   1.8573   -0.78988 
 O                    -3.46982  -0.65647  -1.71915 
 O                    -1.26704   0.87374  -1.30905 
 Zr                    0.73117   0.66571  -1.40142 
 Si                   -2.95182  -0.40071   2.29443 
 Si                   -5.29329   2.11319  -0.39088 
 Si                   -4.65193  -1.79724  -1.46558 
 O                     1.29749  -0.86717  -2.42897 
 Zr                    2.89891  -1.94708  -3.071 
 O                     1.5909    0.29336   0.39266 
 Zr                    3.18862  -0.75418   0.88061 
 O                     1.67353   2.25259  -2.08963 
 Zr                    3.51659   2.96757  -2.28444 
 O                    -6.30259   1.76732  -1.65717 
 O                    -5.44687   3.68028   0.05984 
 O                    -5.76721   1.08545   0.81639 
 O                    -3.50601  -1.97299   2.26095 
 O                    -4.03994   0.60192   2.98173 
 O                    -1.51274  -0.31185   3.10045 
 O                    -4.9739   -2.52135  -2.90029 
 O                    -6.04082  -1.02047  -0.97357 
 O                    -4.21989  -2.88703  -0.34024 
 H                    -6.38886  -0.36717  -1.60281 
 H                    -4.21233  -2.86813  -3.37752 
 H                    -3.92943  -2.60256   0.54609 
 H                    -4.78107   0.84544   2.39047 
 H                    -6.04405   0.21773   0.45311 
 H                    -6.24075   2.34318  -2.42744 
 H                    -4.62851   4.12226   0.31086 
 H                    -0.83615   0.10482   2.53314 
 H                    -4.05643  -2.25627   2.99954 
 O                     2.49495  -2.33285  -4.95781 
 H                     2.83553  -1.98926  -5.78954 
 O                     4.41916  -0.73902  -3.18186 
 H                     4.75727   0.01513  -2.65807 
 O                     3.17597  -3.84425  -2.40009 
 H                     3.12821  -4.63052  -2.95484 
 O                     4.69839   1.52899  -1.58476 
 H                     4.94367   1.28484  -0.66743 
 O                     3.93342   3.26477  -4.17154 
 H                     4.03956   3.91797  -4.86714 
 O                     3.67319   4.58334  -1.20706 
 H                     3.32155   5.27001  -0.63733 
 O                     3.43157  -2.06183  -0.61367 
 H                     3.4991   -3.031    -0.72861 
 O                     4.77216   0.46992   0.9751 
 H                     5.34569   0.74593   1.69834 
 O                     2.79282  -1.56683   2.59804 
 H                     1.94234  -1.50306   3.06903 
 
 The following ModRedundant input section has been read:
 A       1       5       6 F                                                   
 

 GradGradGradGradGradGradGradGradGradGradGradGradGradGradGradGradGradGrad
 Berny optimization.
 Initialization pass.
                           ----------------------------
                           !    Initial Parameters    !
                           ! (Angstroms and Degrees)  !
 --------------------------                            --------------------------
 ! Name  Definition              Value          Derivative Info.                !
 --------------------------------------------------------------------------------
 ! R1    R(1,2)                  1.6395         estimate D2E/DX2                !
 ! R2    R(1,3)                  1.6537         estimate D2E/DX2                !
 ! R3    R(1,4)                  1.6387         estimate D2E/DX2                !
 ! R4    R(1,5)                  1.6227         estimate D2E/DX2                !
 ! R5    R(2,7)                  1.6283         estimate D2E/DX2                !
 ! R6    R(3,8)                  1.6494         estimate D2E/DX2                !
 ! R7    R(4,9)                  1.6622         estimate D2E/DX2                !
 ! R8    R(5,6)                  2.0111         estimate D2E/DX2                !
 ! R9    R(6,10)                 1.9304         estimate D2E/DX2                !
 ! R10   R(6,12)                 2.024          estimate D2E/DX2                !
 ! R11   R(6,14)                 1.9697         estimate D2E/DX2                !
 ! R12   R(7,19)                 1.6674         estimate D2E/DX2                !
 ! R13   R(7,20)                 1.6315         estimate D2E/DX2                !
 ! R14   R(7,21)                 1.6518         estimate D2E/DX2                !
 ! R15   R(8,16)                 1.6558         estimate D2E/DX2                !
 ! R16   R(8,17)                 1.6378         estimate D2E/DX2                !
 ! R17   R(8,18)                 1.6548         estimate D2E/DX2                !
 ! R18   R(9,22)                 1.639          estimate D2E/DX2                !
 ! R19   R(9,23)                 1.6657         estimate D2E/DX2                !
 ! R20   R(9,24)                 1.625          estimate D2E/DX2                !
 ! R21   R(10,11)                2.0354         estimate D2E/DX2                !
 ! R22   R(11,34)                1.9678         estimate D2E/DX2                !
 ! R23   R(11,36)                1.945          estimate D2E/DX2                !
 ! R24   R(11,38)                2.0313         estimate D2E/DX2                !
 ! R25   R(12,13)                1.9718         estimate D2E/DX2                !
 ! R26   R(13,46)                2.0005         estimate D2E/DX2                !
 ! R27   R(13,48)                2.0037         estimate D2E/DX2                !
 ! R28   R(13,50)                1.9408         estimate D2E/DX2                !
 ! R29   R(14,15)                1.9865         estimate D2E/DX2                !
 ! R30   R(15,40)                1.9889         estimate D2E/DX2                !
 ! R31   R(15,42)                1.9553         estimate D2E/DX2                !
 ! R32   R(15,44)                1.9483         estimate D2E/DX2                !
 ! R33   R(16,30)                0.9637         estimate D2E/DX2                !
 ! R34   R(17,31)                0.9634         estimate D2E/DX2                !
 ! R35   R(18,29)                0.9806         estimate D2E/DX2                !
 ! R36   R(19,33)                0.9637         estimate D2E/DX2                !
 ! R37   R(20,28)                0.9789         estimate D2E/DX2                !
 ! R38   R(21,32)                0.9763         estimate D2E/DX2                !
 ! R39   R(22,26)                0.9633         estimate D2E/DX2                !
 ! R40   R(23,25)                0.9715         estimate D2E/DX2                !
 ! R41   R(24,27)                0.9751         estimate D2E/DX2                !
 ! R42   R(34,35)                0.9622         estimate D2E/DX2                !
 ! R43   R(36,37)                0.9785         estimate D2E/DX2                !
 ! R44   R(38,39)                0.9635         estimate D2E/DX2                !
 ! R45   R(40,41)                0.9804         estimate D2E/DX2                !
 ! R46   R(42,43)                0.9601         estimate D2E/DX2                !
 ! R47   R(44,45)                0.959          estimate D2E/DX2                !
 ! R48   R(46,47)                0.9783         estimate D2E/DX2                !
 ! R49   R(48,49)                0.9634         estimate D2E/DX2                !
 ! R50   R(50,51)                0.9743         estimate D2E/DX2                !
 ! A1    A(2,1,3)              108.5202         estimate D2E/DX2                !
 ! A2    A(2,1,4)              108.0696         estimate D2E/DX2                !
 ! A3    A(2,1,5)              107.6808         estimate D2E/DX2                !
 ! A4    A(3,1,4)              109.6434         estimate D2E/DX2                !
 ! A5    A(3,1,5)              110.2104         estimate D2E/DX2                !
 ! A6    A(4,1,5)              112.595          estimate D2E/DX2                !
 ! A7    A(1,2,7)              162.9195         estimate D2E/DX2                !
 ! A8    A(1,3,8)              132.766          estimate D2E/DX2                !
 ! A9    A(1,4,9)              134.9946         estimate D2E/DX2                !
 ! A10   A(1,5,6)              155.1022         Frozen                          !
 ! A11   A(5,6,10)             113.4581         estimate D2E/DX2                !
 ! A12   A(5,6,12)             113.6007         estimate D2E/DX2                !
 ! A13   A(5,6,14)             114.0829         estimate D2E/DX2                !
 ! A14   A(10,6,12)            101.6036         estimate D2E/DX2                !
 ! A15   A(10,6,14)            108.2644         estimate D2E/DX2                !
 ! A16   A(12,6,14)            104.7556         estimate D2E/DX2                !
 ! A17   A(2,7,19)             103.84           estimate D2E/DX2                !
 ! A18   A(2,7,20)             113.7575         estimate D2E/DX2                !
 ! A19   A(2,7,21)             107.0096         estimate D2E/DX2                !
 ! A20   A(19,7,20)            111.4863         estimate D2E/DX2                !
 ! A21   A(19,7,21)            110.4922         estimate D2E/DX2                !
 ! A22   A(20,7,21)            110.0253         estimate D2E/DX2                !
 ! A23   A(3,8,16)             111.4953         estimate D2E/DX2                !
 ! A24   A(3,8,17)             107.7477         estimate D2E/DX2                !
 ! A25   A(3,8,18)             110.7593         estimate D2E/DX2                !
 ! A26   A(16,8,17)            110.6802         estimate D2E/DX2                !
 ! A27   A(16,8,18)            104.6923         estimate D2E/DX2                !
 ! A28   A(17,8,18)            111.5071         estimate D2E/DX2                !
 ! A29   A(4,9,22)             108.021          estimate D2E/DX2                !
 ! A30   A(4,9,23)             108.5421         estimate D2E/DX2                !
 ! A31   A(4,9,24)             112.1363         estimate D2E/DX2                !
 ! A32   A(22,9,23)            107.505          estimate D2E/DX2                !
 ! A33   A(22,9,24)            111.2311         estimate D2E/DX2                !
 ! A34   A(23,9,24)            109.2613         estimate D2E/DX2                !
 ! A35   A(6,10,11)            145.0883         estimate D2E/DX2                !
 ! A36   A(10,11,34)           104.1789         estimate D2E/DX2                !
 ! A37   A(10,11,36)           107.6624         estimate D2E/DX2                !
 ! A38   A(10,11,38)           119.9112         estimate D2E/DX2                !
 ! A39   A(34,11,36)           103.1545         estimate D2E/DX2                !
 ! A40   A(34,11,38)            99.2998         estimate D2E/DX2                !
 ! A41   A(36,11,38)           119.4937         estimate D2E/DX2                !
 ! A42   A(6,12,13)            131.3963         estimate D2E/DX2                !
 ! A43   A(12,13,46)           105.119          estimate D2E/DX2                !
 ! A44   A(12,13,48)           109.1156         estimate D2E/DX2                !
 ! A45   A(12,13,50)           106.0325         estimate D2E/DX2                !
 ! A46   A(46,13,48)           109.7905         estimate D2E/DX2                !
 ! A47   A(46,13,50)           114.3346         estimate D2E/DX2                !
 ! A48   A(48,13,50)           112.0394         estimate D2E/DX2                !
 ! A49   A(6,14,15)            140.185          estimate D2E/DX2                !
 ! A50   A(14,15,40)           104.8606         estimate D2E/DX2                !
 ! A51   A(14,15,42)           110.3128         estimate D2E/DX2                !
 ! A52   A(14,15,44)           108.5925         estimate D2E/DX2                !
 ! A53   A(40,15,42)           108.8318         estimate D2E/DX2                !
 ! A54   A(40,15,44)           110.9499         estimate D2E/DX2                !
 ! A55   A(42,15,44)           112.9856         estimate D2E/DX2                !
 ! A56   A(8,16,30)            116.5711         estimate D2E/DX2                !
 ! A57   A(8,17,31)            115.5324         estimate D2E/DX2                !
 ! A58   A(8,18,29)            111.1097         estimate D2E/DX2                !
 ! A59   A(7,19,33)            116.8474         estimate D2E/DX2                !
 ! A60   A(7,20,28)            113.7913         estimate D2E/DX2                !
 ! A61   A(7,21,32)            110.0697         estimate D2E/DX2                !
 ! A62   A(9,22,26)            115.9371         estimate D2E/DX2                !
 ! A63   A(9,23,25)            114.8968         estimate D2E/DX2                !
 ! A64   A(9,24,27)            120.8639         estimate D2E/DX2                !
 ! A65   A(11,34,35)           133.3284         estimate D2E/DX2                !
 ! A66   A(11,36,37)           135.9147         estimate D2E/DX2                !
 ! A67   A(11,38,39)           124.4211         estimate D2E/DX2                !
 ! A68   A(15,40,41)           131.1413         estimate D2E/DX2                !
 ! A69   A(15,42,43)           145.7115         estimate D2E/DX2                !
 ! A70   A(15,44,45)           153.2293         estimate D2E/DX2                !
 ! A71   A(13,46,47)           138.0494         estimate D2E/DX2                !
 ! A72   A(13,48,49)           132.9126         estimate D2E/DX2                !
 ! A73   A(13,50,51)           125.3388         estimate D2E/DX2                !
 ! D1    D(3,1,2,7)             26.3443         estimate D2E/DX2                !
 ! D2    D(4,1,2,7)            -92.4856         estimate D2E/DX2                !
 ! D3    D(5,1,2,7)            145.6313         estimate D2E/DX2                !
 ! D4    D(2,1,3,8)            -62.7632         estimate D2E/DX2                !
 ! D5    D(4,1,3,8)             55.0697         estimate D2E/DX2                !
 ! D6    D(5,1,3,8)            179.5501         estimate D2E/DX2                !
 ! D7    D(2,1,4,9)             35.4977         estimate D2E/DX2                !
 ! D8    D(3,1,4,9)            -82.6158         estimate D2E/DX2                !
 ! D9    D(5,1,4,9)            154.3011         estimate D2E/DX2                !
 ! D10   D(2,1,5,6)             31.8647         estimate D2E/DX2                !
 ! D11   D(3,1,5,6)            150.0687         estimate D2E/DX2                !
 ! D12   D(4,1,5,6)            -87.1657         estimate D2E/DX2                !
 ! D13   D(1,2,7,19)           100.9483         estimate D2E/DX2                !
 ! D14   D(1,2,7,20)           -20.4241         estimate D2E/DX2                !
 ! D15   D(1,2,7,21)          -142.1534         estimate D2E/DX2                !
 ! D16   D(1,3,8,16)           -83.6614         estimate D2E/DX2                !
 ! D17   D(1,3,8,17)           154.7            estimate D2E/DX2                !
 ! D18   D(1,3,8,18)            32.4929         estimate D2E/DX2                !
 ! D19   D(1,4,9,22)           173.7129         estimate D2E/DX2                !
 ! D20   D(1,4,9,23)            57.4339         estimate D2E/DX2                !
 ! D21   D(1,4,9,24)           -63.3679         estimate D2E/DX2                !
 ! D22   D(1,5,6,10)            74.166          estimate D2E/DX2                !
 ! D23   D(1,5,6,12)           -41.2296         estimate D2E/DX2                !
 ! D24   D(1,5,6,14)          -161.2114         estimate D2E/DX2                !
 ! D25   D(5,6,10,11)         -177.8676         estimate D2E/DX2                !
 ! D26   D(12,6,10,11)         -55.5481         estimate D2E/DX2                !
 ! D27   D(14,6,10,11)          54.4245         estimate D2E/DX2                !
 ! D28   D(5,6,12,13)          148.1498         estimate D2E/DX2                !
 ! D29   D(10,6,12,13)          25.9286         estimate D2E/DX2                !
 ! D30   D(14,6,12,13)         -86.711          estimate D2E/DX2                !
 ! D31   D(5,6,14,15)          169.9962         estimate D2E/DX2                !
 ! D32   D(10,6,14,15)         -62.6542         estimate D2E/DX2                !
 ! D33   D(12,6,14,15)          45.1616         estimate D2E/DX2                !
 ! D34   D(2,7,19,33)         -156.8425         estimate D2E/DX2                !
 ! D35   D(20,7,19,33)         -33.9627         estimate D2E/DX2                !
 ! D36   D(21,7,19,33)          88.7198         estimate D2E/DX2                !
 ! D37   D(2,7,20,28)           39.0047         estimate D2E/DX2                !
 ! D38   D(19,7,20,28)         -78.0052         estimate D2E/DX2                !
 ! D39   D(21,7,20,28)         159.0451         estimate D2E/DX2                !
 ! D40   D(2,7,21,32)           12.2859         estimate D2E/DX2                !
 ! D41   D(19,7,21,32)         124.7052         estimate D2E/DX2                !
 ! D42   D(20,7,21,32)        -111.7631         estimate D2E/DX2                !
 ! D43   D(3,8,16,30)          -66.936          estimate D2E/DX2                !
 ! D44   D(17,8,16,30)          52.9866         estimate D2E/DX2                !
 ! D45   D(18,8,16,30)         173.2574         estimate D2E/DX2                !
 ! D46   D(3,8,17,31)          -19.3558         estimate D2E/DX2                !
 ! D47   D(16,8,17,31)        -141.4996         estimate D2E/DX2                !
 ! D48   D(18,8,17,31)         102.3883         estimate D2E/DX2                !
 ! D49   D(3,8,18,29)          -84.4645         estimate D2E/DX2                !
 ! D50   D(16,8,18,29)          35.8337         estimate D2E/DX2                !
 ! D51   D(17,8,18,29)         155.5519         estimate D2E/DX2                !
 ! D52   D(4,9,22,26)           52.0376         estimate D2E/DX2                !
 ! D53   D(23,9,22,26)         168.99           estimate D2E/DX2                !
 ! D54   D(24,9,22,26)         -71.4318         estimate D2E/DX2                !
 ! D55   D(4,9,23,25)           59.2735         estimate D2E/DX2                !
 ! D56   D(22,9,23,25)         -57.3378         estimate D2E/DX2                !
 ! D57   D(24,9,23,25)        -178.1643         estimate D2E/DX2                !
 ! D58   D(4,9,24,27)           54.0597         estimate D2E/DX2                !
 ! D59   D(22,9,24,27)         175.1468         estimate D2E/DX2                !
 ! D60   D(23,9,24,27)         -66.3256         estimate D2E/DX2                !
 ! D61   D(6,10,11,34)        -136.8767         estimate D2E/DX2                !
 ! D62   D(6,10,11,36)         -27.8028         estimate D2E/DX2                !
 ! D63   D(6,10,11,38)         113.3904         estimate D2E/DX2                !
 ! D64   D(10,11,34,35)        105.9333         estimate D2E/DX2                !
 ! D65   D(36,11,34,35)         -6.4265         estimate D2E/DX2                !
 ! D66   D(38,11,34,35)       -129.8345         estimate D2E/DX2                !
 ! D67   D(10,11,36,37)         37.7963         estimate D2E/DX2                !
 ! D68   D(34,11,36,37)        147.5764         estimate D2E/DX2                !
 ! D69   D(38,11,36,37)       -103.5879         estimate D2E/DX2                !
 ! D70   D(10,11,38,39)        114.2545         estimate D2E/DX2                !
 ! D71   D(34,11,38,39)          1.8862         estimate D2E/DX2                !
 ! D72   D(36,11,38,39)       -109.0645         estimate D2E/DX2                !
 ! D73   D(6,12,13,46)         -23.7707         estimate D2E/DX2                !
 ! D74   D(6,12,13,48)          93.9284         estimate D2E/DX2                !
 ! D75   D(6,12,13,50)        -145.2204         estimate D2E/DX2                !
 ! D76   D(12,13,46,47)       -123.8177         estimate D2E/DX2                !
 ! D77   D(48,13,46,47)        118.9417         estimate D2E/DX2                !
 ! D78   D(50,13,46,47)         -7.9581         estimate D2E/DX2                !
 ! D79   D(12,13,48,49)        115.0454         estimate D2E/DX2                !
 ! D80   D(46,13,48,49)       -130.2407         estimate D2E/DX2                !
 ! D81   D(50,13,48,49)         -2.0614         estimate D2E/DX2                !
 ! D82   D(12,13,50,51)          3.8982         estimate D2E/DX2                !
 ! D83   D(46,13,50,51)       -111.4298         estimate D2E/DX2                !
 ! D84   D(48,13,50,51)        122.8399         estimate D2E/DX2                !
 ! D85   D(6,14,15,40)           2.4019         estimate D2E/DX2                !
 ! D86   D(6,14,15,42)         119.4235         estimate D2E/DX2                !
 ! D87   D(6,14,15,44)        -116.2544         estimate D2E/DX2                !
 ! D88   D(14,15,40,41)        -80.6701         estimate D2E/DX2                !
 ! D89   D(42,15,40,41)        161.2978         estimate D2E/DX2                !
 ! D90   D(44,15,40,41)         36.3825         estimate D2E/DX2                !
 ! D91   D(14,15,42,43)        104.4326         estimate D2E/DX2                !
 ! D92   D(40,15,42,43)       -141.0364         estimate D2E/DX2                !
 ! D93   D(44,15,42,43)        -17.3243         estimate D2E/DX2                !
 ! D94   D(14,15,44,45)         -4.8206         estimate D2E/DX2                !
 ! D95   D(40,15,44,45)       -119.5628         estimate D2E/DX2                !
 ! D96   D(42,15,44,45)        117.8997         estimate D2E/DX2                !
 --------------------------------------------------------------------------------
 Trust Radius=3.00D-01 FncErr=1.00D-07 GrdErr=1.00D-06 EigMax=2.50D+02 EigMin=1.00D-04
 Number of steps in this run=    229 maximum allowed number of steps=    306.
 GradGradGradGradGradGradGradGradGradGradGradGradGradGradGradGradGradGrad

 Stoichiometry    H18O25Si4Zr4
 Framework group  C1[X(H18O25Si4Zr4)]
 Deg. of freedom   147
 Full point group                 C1      NOp   1
 Largest Abelian subgroup         C1      NOp   1
 Largest concise Abelian subgroup C1      NOp   1
                         Standard orientation:                         
 ---------------------------------------------------------------------
 Center     Atomic      Atomic             Coordinates (Angstroms)
 Number     Number       Type             X           Y           Z
 ---------------------------------------------------------------------
      1         14           0       -2.868676    0.487994   -0.455852
      2          8           0       -3.086656   -0.207614    1.012721
      3          8           0       -3.768634    1.873877   -0.519415
      4          8           0       -3.393477   -0.562540   -1.598801
      5          8           0       -1.291052    0.836620   -0.606771
      6         40           0        0.676751    0.554828   -0.301821
      7         14           0       -3.723050   -0.660358    2.441542
      8         14           0       -5.390677    2.160799   -0.434768
      9         14           0       -4.628437   -1.670703   -1.698244
     10          8           0        1.410525   -0.910054   -1.322603
     11         40           0        3.085671   -1.998323   -1.713131
     12          8           0        1.132259    0.000638    1.590767
     13         40           0        2.567534   -1.148480    2.303269
     14          8           0        1.778797    2.152933   -0.635618
     15         40           0        3.637693    2.805058   -0.380166
     16          8           0       -6.119632    1.962439   -1.908227
     17          8           0       -5.599231    3.690347    0.112494
     18          8           0       -6.130815    1.057338    0.551599
     19          8           0       -4.293963   -2.200360    2.153852
     20          8           0       -4.907728    0.326091    2.975500
     21          8           0       -2.483376   -0.697631    3.532567
     22          8           0       -4.658925   -2.260093   -3.227322
     23          8           0       -6.071356   -0.880655   -1.436960
     24          8           0       -4.467257   -2.866489   -0.609755
     25          1           0       -6.264534   -0.163890   -2.063703
     26          1           0       -3.822396   -2.597375   -3.565634
     27          1           0       -4.362681   -2.668321    0.339278
     28          1           0       -5.502552    0.647872    2.267824
     29          1           0       -6.345219    0.234687    0.062899
     30          1           0       -5.884362    2.596854   -2.594463
     31          1           0       -4.841762    4.076038    0.565874
     32          1           0       -1.693433   -0.263784    3.157074
     33          1           0       -4.993428   -2.520712    2.734238
     34          8           0        3.077656   -2.210136   -3.669435
     35          1           0        3.592929   -1.813406   -4.378605
     36          8           0        4.622776   -0.848854   -1.398666
     37          1           0        4.860788   -0.155056   -0.751047
     38          8           0        3.172071   -3.954173   -1.171542
     39          1           0        3.223625   -4.689355   -1.792106
     40          8           0        4.612995    1.266220    0.417631
     41          1           0        4.654728    0.937322    1.340317
     42          8           0        4.447783    3.239535   -2.105914
     43          1           0        4.712476    3.942976   -2.703328
     44          8           0        3.602022    4.318602    0.846169
     45          1           0        3.154624    4.969815    1.389781
     46          8           0        3.088297   -2.337269    0.780957
     47          1           0        3.156087   -3.295606    0.596414
     48          8           0        4.123804   -0.002589    2.832329
     49          1           0        4.539088    0.188957    3.680293
     50          8           0        1.801712   -2.083078    3.822041
     51          1           0        0.873064   -2.023425    4.110604
 ---------------------------------------------------------------------
 Rotational constants (GHZ):           0.0840829           0.0356644           0.0341223
 General basis read from cards:  (5D, 7F)
 ======================================================================================================
                                       Pseudopotential Parameters
 ======================================================================================================
  Center     Atomic      Valence      Angular      Power
  Number     Number     Electrons     Momentum     of R      Exponent        Coefficient   SO-Coeffient
 ======================================================================================================
    1         14
                                   No pseudopotential on this center.
    2          8
                                   No pseudopotential on this center.
    3          8
                                   No pseudopotential on this center.
    4          8
                                   No pseudopotential on this center.
    5          8
                                   No pseudopotential on this center.
    6         40           12
                                      F and up 
                                                     0      645.9321873       -0.04258430    0.00000000
                                                     1      134.7547401      -20.22224090    0.00000000
                                                     2       42.3074619     -101.86951720    0.00000000
                                                     2       12.0003227      -41.61957840    0.00000000
                                                     2        4.1260454       -4.69861600    0.00000000
                                      S - F
                                                     0      117.6251862        2.79105590    0.00000000
                                                     1       22.9646089       41.94894590    0.00000000
                                                     2        4.5225298       67.72718660    0.00000000
                                      P - F
                                                     0       47.1953145        4.99111440    0.00000000
                                                     1       48.0356033       20.71931720    0.00000000
                                                     2       19.4541456      195.58677580    0.00000000
                                                     2        4.0512875       48.28771760    0.00000000
                                      D - F
                                                     0       79.9073983        3.00492260    0.00000000
                                                     1       45.8263798       25.93779890    0.00000000
                                                     2       26.9903522      125.12449340    0.00000000
                                                     2        9.6835718       70.76340220    0.00000000
                                                     2        2.7995666       15.04928220    0.00000000
    7         14
                                   No pseudopotential on this center.
    8         14
                                   No pseudopotential on this center.
    9         14
                                   No pseudopotential on this center.
   10          8
                                   No pseudopotential on this center.
   11         40           12
                                      F and up 
                                                     0      645.9321873       -0.04258430    0.00000000
                                                     1      134.7547401      -20.22224090    0.00000000
                                                     2       42.3074619     -101.86951720    0.00000000
                                                     2       12.0003227      -41.61957840    0.00000000
                                                     2        4.1260454       -4.69861600    0.00000000
                                      S - F
                                                     0      117.6251862        2.79105590    0.00000000
                                                     1       22.9646089       41.94894590    0.00000000
                                                     2        4.5225298       67.72718660    0.00000000
                                      P - F
                                                     0       47.1953145        4.99111440    0.00000000
                                                     1       48.0356033       20.71931720    0.00000000
                                                     2       19.4541456      195.58677580    0.00000000
                                                     2        4.0512875       48.28771760    0.00000000
                                      D - F
                                                     0       79.9073983        3.00492260    0.00000000
                                                     1       45.8263798       25.93779890    0.00000000
                                                     2       26.9903522      125.12449340    0.00000000
                                                     2        9.6835718       70.76340220    0.00000000
                                                     2        2.7995666       15.04928220    0.00000000
   12          8
                                   No pseudopotential on this center.
   13         40           12
                                      F and up 
                                                     0      645.9321873       -0.04258430    0.00000000
                                                     1      134.7547401      -20.22224090    0.00000000
                                                     2       42.3074619     -101.86951720    0.00000000
                                                     2       12.0003227      -41.61957840    0.00000000
                                                     2        4.1260454       -4.69861600    0.00000000
                                      S - F
                                                     0      117.6251862        2.79105590    0.00000000
                                                     1       22.9646089       41.94894590    0.00000000
                                                     2        4.5225298       67.72718660    0.00000000
                                      P - F
                                                     0       47.1953145        4.99111440    0.00000000
                                                     1       48.0356033       20.71931720    0.00000000
                                                     2       19.4541456      195.58677580    0.00000000
                                                     2        4.0512875       48.28771760    0.00000000
                                      D - F
                                                     0       79.9073983        3.00492260    0.00000000
                                                     1       45.8263798       25.93779890    0.00000000
                                                     2       26.9903522      125.12449340    0.00000000
                                                     2        9.6835718       70.76340220    0.00000000
                                                     2        2.7995666       15.04928220    0.00000000
   14          8
                                   No pseudopotential on this center.
   15         40           12
                                      F and up 
                                                     0      645.9321873       -0.04258430    0.00000000
                                                     1      134.7547401      -20.22224090    0.00000000
                                                     2       42.3074619     -101.86951720    0.00000000
                                                     2       12.0003227      -41.61957840    0.00000000
                                                     2        4.1260454       -4.69861600    0.00000000
                                      S - F
                                                     0      117.6251862        2.79105590    0.00000000
                                                     1       22.9646089       41.94894590    0.00000000
                                                     2        4.5225298       67.72718660    0.00000000
                                      P - F
                                                     0       47.1953145        4.99111440    0.00000000
                                                     1       48.0356033       20.71931720    0.00000000
                                                     2       19.4541456      195.58677580    0.00000000
                                                     2        4.0512875       48.28771760    0.00000000
                                      D - F
                                                     0       79.9073983        3.00492260    0.00000000
                                                     1       45.8263798       25.93779890    0.00000000
                                                     2       26.9903522      125.12449340    0.00000000
                                                     2        9.6835718       70.76340220    0.00000000
                                                     2        2.7995666       15.04928220    0.00000000
   16          8
                                   No pseudopotential on this center.
   17          8
                                   No pseudopotential on this center.
   18          8
                                   No pseudopotential on this center.
   19          8
                                   No pseudopotential on this center.
   20          8
                                   No pseudopotential on this center.
   21          8
                                   No pseudopotential on this center.
   22          8
                                   No pseudopotential on this center.
   23          8
                                   No pseudopotential on this center.
   24          8
                                   No pseudopotential on this center.
   25          1
                                   No pseudopotential on this center.
   26          1
                                   No pseudopotential on this center.
   27          1
                                   No pseudopotential on this center.
   28          1
                                   No pseudopotential on this center.
   29          1
                                   No pseudopotential on this center.
   30          1
                                   No pseudopotential on this center.
   31          1
                                   No pseudopotential on this center.
   32          1
                                   No pseudopotential on this center.
   33          1
                                   No pseudopotential on this center.
   34          8
                                   No pseudopotential on this center.
   35          1
                                   No pseudopotential on this center.
   36          8
                                   No pseudopotential on this center.
   37          1
                                   No pseudopotential on this center.
   38          8
                                   No pseudopotential on this center.
   39          1
                                   No pseudopotential on this center.
   40          8
                                   No pseudopotential on this center.
   41          1
                                   No pseudopotential on this center.
   42          8
                                   No pseudopotential on this center.
   43          1
                                   No pseudopotential on this center.
   44          8
                                   No pseudopotential on this center.
   45          1
                                   No pseudopotential on this center.
   46          8
                                   No pseudopotential on this center.
   47          1
                                   No pseudopotential on this center.
   48          8
                                   No pseudopotential on this center.
   49          1
                                   No pseudopotential on this center.
   50          8
                                   No pseudopotential on this center.
   51          1
                                   No pseudopotential on this center.
 ======================================================================================================
 There are   637 symmetry adapted cartesian basis functions of A   symmetry.
 There are   600 symmetry adapted basis functions of A   symmetry.
   600 basis functions,  1230 primitive gaussians,   637 cartesian basis functions
   161 alpha electrons      161 beta electrons
       nuclear repulsion energy      5548.5646486494 Hartrees.
 NAtoms=   51 NActive=   51 NUniq=   51 SFac= 1.00D+00 NAtFMM=   60 NAOKFM=F Big=F
 Integral buffers will be    131072 words long.
 Raffenetti 2 integral format.
 Two-electron integral symmetry is turned on.
 One-electron integrals computed using PRISM.
   1 Symmetry operations used in ECPInt.
 ECPInt:  NShTT=   21321 NPrTT=  126439 LenC2=   15018 LenP2D=   50153.
 LDataN:  DoStor=T MaxTD1= 5 Len=  102
 Number of processors reduced to  12 by ecpmxn.
 NBasis=   600 RedAO= T EigKep=  2.63D-03  NBF=   600
 NBsUse=   600 1.00D-06 EigRej= -1.00D+00 NBFU=   600
 Defaulting to unpruned grid for atomic number  40.
 Defaulting to unpruned grid for atomic number  40.
 Defaulting to unpruned grid for atomic number  40.
 ExpMin= 2.43D-02 ExpMax= 1.61D+04 ExpMxC= 2.43D+03 IAcc=3 IRadAn=         5 AccDes= 0.00D+00
 Harris functional with IExCor=  402 and IRadAn=       5 diagonalized for initial guess.
 HarFok:  IExCor=  402 AccDes= 0.00D+00 IRadAn=         5 IDoV= 1 UseB2=F ITyADJ=14
 ICtDFT=  3500011 ScaDFX=  1.000000  1.000000  1.000000  1.000000
 Defaulting to unpruned grid for atomic number  40.
 FoFCou: FMM=F IPFlag=           0 FMFlag=      100000 FMFlg1=           0
         NFxFlg=           0 DoJE=T BraDBF=F KetDBF=T FulRan=T
         wScrn=  0.000000 ICntrl=       500 IOpCl=  0 I1Cent=   200000004 NGrid=           0
         NMat0=    1 NMatS0=      1 NMatT0=    0 NMatD0=    1 NMtDS0=    0 NMtDT0=    0
 Petite list used in FoFCou.
 Requested convergence on RMS density matrix=1.00D-08 within 128 cycles.
 Requested convergence on MAX density matrix=1.00D-06.
 Requested convergence on             energy=1.00D-06.
 No special actions if energy rises.
 Defaulting to unpruned grid for atomic number  40.
 Defaulting to unpruned grid for atomic number  40.
 Defaulting to unpruned grid for atomic number  40.
 Defaulting to unpruned grid for atomic number  40.
 Defaulting to unpruned grid for atomic number  40.
 Defaulting to unpruned grid for atomic number  40.
 Defaulting to unpruned grid for atomic number  40.
 Defaulting to unpruned grid for atomic number  40.
 Defaulting to unpruned grid for atomic number  40.
 Defaulting to unpruned grid for atomic number  40.
 Defaulting to unpruned grid for atomic number  40.
 Defaulting to unpruned grid for atomic number  40.
 Defaulting to unpruned grid for atomic number  40.
 Defaulting to unpruned grid for atomic number  40.
 Defaulting to unpruned grid for atomic number  40.
 Defaulting to unpruned grid for atomic number  40.
 SCF Done:  E(RB3LYP) =  -3237.55626958     A.U. after   17 cycles
            NFock= 17  Conv=0.35D-08     -V/T= 2.0473

 **********************************************************************

            Population analysis using the SCF Density.

 **********************************************************************

 Orbital symmetries:
       Occupied  (A) (A) (A) (A) (A) (A) (A) (A) (A) (A) (A) (A)
                 (A) (A) (A) (A) (A) (A) (A) (A) (A) (A) (A) (A)
                 (A) (A) (A) (A) (A) (A) (A) (A) (A) (A) (A) (A)
                 (A) (A) (A) (A) (A) (A) (A) (A) (A) (A) (A) (A)
                 (A) (A) (A) (A) (A) (A) (A) (A) (A) (A) (A) (A)
                 (A) (A) (A) (A) (A) (A) (A) (A) (A) (A) (A) (A)
                 (A) (A) (A) (A) (A) (A) (A) (A) (A) (A) (A) (A)
                 (A) (A) (A) (A) (A) (A) (A) (A) (A) (A) (A) (A)
                 (A) (A) (A) (A) (A) (A) (A) (A) (A) (A) (A) (A)
                 (A) (A) (A) (A) (A) (A) (A) (A) (A) (A) (A) (A)
                 (A) (A) (A) (A) (A) (A) (A) (A) (A) (A) (A) (A)
                 (A) (A) (A) (A) (A) (A) (A) (A) (A) (A) (A) (A)
                 (A) (A) (A) (A) (A) (A) (A) (A) (A) (A) (A) (A)
                 (A) (A) (A) (A) (A)
       Virtual   (A) (A) (A) (A) (A) (A) (A) (A) (A) (A) (A) (A)
                 (A) (A) (A) (A) (A) (A) (A) (A) (A) (A) (A) (A)
                 (A) (A) (A) (A) (A) (A) (A) (A) (A) (A) (A) (A)
                 (A) (A) (A) (A) (A) (A) (A) (A) (A) (A) (A) (A)
                 (A) (A) (A) (A) (A) (A) (A) (A) (A) (A) (A) (A)
                 (A) (A) (A) (A) (A) (A) (A) (A) (A) (A) (A) (A)
                 (A) (A) (A) (A) (A) (A) (A) (A) (A) (A) (A) (A)
                 (A) (A) (A) (A) (A) (A) (A) (A) (A) (A) (A) (A)
                 (A) (A) (A) (A) (A) (A) (A) (A) (A) (A) (A) (A)
                 (A) (A) (A) (A) (A) (A) (A) (A) (A) (A) (A) (A)
                 (A) (A) (A) (A) (A) (A) (A) (A) (A) (A) (A) (A)
                 (A) (A) (A) (A) (A) (A) (A) (A) (A) (A) (A) (A)
                 (A) (A) (A) (A) (A) (A) (A) (A) (A) (A) (A) (A)
                 (A) (A) (A) (A) (A) (A) (A) (A) (A) (A) (A) (A)
                 (A) (A) (A) (A) (A) (A) (A) (A) (A) (A) (A) (A)
                 (A) (A) (A) (A) (A) (A) (A) (A) (A) (A) (A) (A)
                 (A) (A) (A) (A) (A) (A) (A) (A) (A) (A) (A) (A)
                 (A) (A) (A) (A) (A) (A) (A) (A) (A) (A) (A) (A)
                 (A) (A) (A) (A) (A) (A) (A) (A) (A) (A) (A) (A)
                 (A) (A) (A) (A) (A) (A) (A) (A) (A) (A) (A) (A)
                 (A) (A) (A) (A) (A) (A) (A) (A) (A) (A) (A) (A)
                 (A) (A) (A) (A) (A) (A) (A) (A) (A) (A) (A) (A)
                 (A) (A) (A) (A) (A) (A) (A) (A) (A) (A) (A) (A)
                 (A) (A) (A) (A) (A) (A) (A) (A) (A) (A) (A) (A)
                 (A) (A) (A) (A) (A) (A) (A) (A) (A) (A) (A) (A)
                 (A) (A) (A) (A) (A) (A) (A) (A) (A) (A) (A) (A)
                 (A) (A) (A) (A) (A) (A) (A) (A) (A) (A) (A) (A)
                 (A) (A) (A) (A) (A) (A) (A) (A) (A) (A) (A) (A)
                 (A) (A) (A) (A) (A) (A) (A) (A) (A) (A) (A) (A)
                 (A) (A) (A) (A) (A) (A) (A) (A) (A) (A) (A) (A)
                 (A) (A) (A) (A) (A) (A) (A) (A) (A) (A) (A) (A)
                 (A) (A) (A) (A) (A) (A) (A) (A) (A) (A) (A) (A)
                 (A) (A) (A) (A) (A) (A) (A) (A) (A) (A) (A) (A)
                 (A) (A) (A) (A) (A) (A) (A) (A) (A) (A) (A) (A)
                 (A) (A) (A) (A) (A) (A) (A) (A) (A) (A) (A) (A)
                 (A) (A) (A) (A) (A) (A) (A) (A) (A) (A) (A) (A)
                 (A) (A) (A) (A) (A) (A) (A)
 The electronic state is 1-A.
 Alpha  occ. eigenvalues --  -66.21828 -66.21612 -66.20609 -66.19959 -19.17107
 Alpha  occ. eigenvalues --  -19.16849 -19.16575 -19.16502 -19.16180 -19.16149
 Alpha  occ. eigenvalues --  -19.15856 -19.15490 -19.15431 -19.15265 -19.15253
 Alpha  occ. eigenvalues --  -19.14950 -19.14489 -19.14472 -19.14314 -19.14276
 Alpha  occ. eigenvalues --  -19.14182 -19.14105 -19.14049 -19.13724 -19.13337
 Alpha  occ. eigenvalues --  -19.12908 -19.12627 -19.12215 -19.11678  -5.35842
 Alpha  occ. eigenvalues --   -5.35751  -5.34821  -5.34166  -3.71805  -3.71784
 Alpha  occ. eigenvalues --   -3.71772  -3.71751  -3.71715  -3.71653  -3.70889
 Alpha  occ. eigenvalues --   -3.70733  -3.70657  -3.70161  -3.70115  -3.70042
 Alpha  occ. eigenvalues --   -2.08500  -2.06806  -2.06777  -2.05124  -1.29624
 Alpha  occ. eigenvalues --   -1.29037  -1.28757  -1.27889  -1.27682  -1.27590
 Alpha  occ. eigenvalues --   -1.27153  -1.26997  -1.26652  -1.25771  -1.25517
 Alpha  occ. eigenvalues --   -1.25167  -1.04978  -1.03747  -1.02799  -1.01579
 Alpha  occ. eigenvalues --   -1.01119  -1.00880  -1.00242  -0.99520  -0.98841
 Alpha  occ. eigenvalues --   -0.98734  -0.98371  -0.98149  -0.97704  -0.97615
 Alpha  occ. eigenvalues --   -0.97389  -0.96684  -0.95480  -0.94984  -0.94747
 Alpha  occ. eigenvalues --   -0.93960  -0.93740  -0.92132  -0.90526  -0.89431
 Alpha  occ. eigenvalues --   -0.88392  -0.61204  -0.59216  -0.58515  -0.55430
 Alpha  occ. eigenvalues --   -0.54120  -0.53044  -0.52011  -0.51763  -0.51545
 Alpha  occ. eigenvalues --   -0.51245  -0.51072  -0.50717  -0.50512  -0.50333
 Alpha  occ. eigenvalues --   -0.50118  -0.49199  -0.48880  -0.47807  -0.46817
 Alpha  occ. eigenvalues --   -0.45678  -0.45585  -0.44893  -0.42563  -0.41561
 Alpha  occ. eigenvalues --   -0.41073  -0.40669  -0.40122  -0.39958  -0.39670
 Alpha  occ. eigenvalues --   -0.39539  -0.39054  -0.38939  -0.38887  -0.38383
 Alpha  occ. eigenvalues --   -0.38076  -0.37425  -0.37123  -0.36744  -0.36600
 Alpha  occ. eigenvalues --   -0.36276  -0.36056  -0.35719  -0.35539  -0.35473
 Alpha  occ. eigenvalues --   -0.35345  -0.35137  -0.35099  -0.34760  -0.34607
 Alpha  occ. eigenvalues --   -0.34498  -0.34406  -0.34293  -0.34135  -0.33858
 Alpha  occ. eigenvalues --   -0.33698  -0.33461  -0.33182  -0.33004  -0.32814
 Alpha  occ. eigenvalues --   -0.32746  -0.32451  -0.32350  -0.32178  -0.31653
 Alpha  occ. eigenvalues --   -0.31571  -0.31349  -0.31117  -0.30966  -0.30898
 Alpha  occ. eigenvalues --   -0.30785  -0.30514  -0.30244  -0.29539  -0.29200
 Alpha  occ. eigenvalues --   -0.28679
 Alpha virt. eigenvalues --   -0.05346  -0.04864  -0.04368  -0.03866  -0.02909
 Alpha virt. eigenvalues --   -0.02762  -0.02091  -0.01694  -0.01399  -0.01298
 Alpha virt. eigenvalues --   -0.00814  -0.00678  -0.00352  -0.00001   0.00345
 Alpha virt. eigenvalues --    0.00614   0.00739   0.00932   0.01382   0.01818
 Alpha virt. eigenvalues --    0.02309   0.02352   0.02592   0.02943   0.03058
 Alpha virt. eigenvalues --    0.03295   0.04036   0.04164   0.04787   0.05082
 Alpha virt. eigenvalues --    0.05517   0.05879   0.06217   0.06566   0.07240
 Alpha virt. eigenvalues --    0.08076   0.08128   0.08614   0.09316   0.10051
 Alpha virt. eigenvalues --    0.10423   0.11066   0.11731   0.12494   0.13080
 Alpha virt. eigenvalues --    0.13660   0.13796   0.14316   0.14706   0.14999
 Alpha virt. eigenvalues --    0.15101   0.16198   0.16328   0.16680   0.16828
 Alpha virt. eigenvalues --    0.17519   0.17814   0.17922   0.18127   0.18470
 Alpha virt. eigenvalues --    0.19312   0.19597   0.19830   0.20028   0.20227
 Alpha virt. eigenvalues --    0.20841   0.21284   0.21695   0.21907   0.22178
 Alpha virt. eigenvalues --    0.22403   0.22665   0.22953   0.23461   0.23829
 Alpha virt. eigenvalues --    0.23972   0.24433   0.24587   0.24923   0.25572
 Alpha virt. eigenvalues --    0.25644   0.26368   0.26813   0.27067   0.27219
 Alpha virt. eigenvalues --    0.27898   0.28560   0.28838   0.29203   0.29587
 Alpha virt. eigenvalues --    0.30316   0.30431   0.30623   0.31148   0.32211
 Alpha virt. eigenvalues --    0.32470   0.33119   0.33552   0.34044   0.35312
 Alpha virt. eigenvalues --    0.35763   0.35906   0.36764   0.36784   0.37775
 Alpha virt. eigenvalues --    0.38385   0.38865   0.39540   0.41127   0.41509
 Alpha virt. eigenvalues --    0.41928   0.44050   0.46001   0.46149   0.47221
 Alpha virt. eigenvalues --    0.48883   0.49325   0.52233   0.55695   0.56829
 Alpha virt. eigenvalues --    0.58472   0.59918   0.60755   0.64660   0.65315
 Alpha virt. eigenvalues --    0.66942   0.76941   0.77054   0.78046   0.79228
 Alpha virt. eigenvalues --    0.80167   0.80404   0.81225   0.82034   0.82364
 Alpha virt. eigenvalues --    0.83619   0.84044   0.84293   0.84863   0.85886
 Alpha virt. eigenvalues --    0.86527   0.87366   0.89069   0.89560   0.90393
 Alpha virt. eigenvalues --    0.90699   0.92029   0.92283   0.92728   0.92990
 Alpha virt. eigenvalues --    0.93362   0.94195   0.94445   0.94523   0.95044
 Alpha virt. eigenvalues --    0.95647   0.96093   0.96578   0.97049   0.97127
 Alpha virt. eigenvalues --    0.97455   0.97881   0.98221   0.98498   0.99230
 Alpha virt. eigenvalues --    0.99387   0.99747   1.00124   1.00541   1.01341
 Alpha virt. eigenvalues --    1.01684   1.01864   1.02799   1.03241   1.03956
 Alpha virt. eigenvalues --    1.04188   1.05067   1.05194   1.05268   1.06297
 Alpha virt. eigenvalues --    1.07005   1.07393   1.07748   1.08150   1.08825
 Alpha virt. eigenvalues --    1.09039   1.09765   1.10256   1.10366   1.11033
 Alpha virt. eigenvalues --    1.11351   1.11900   1.12439   1.13068   1.14048
 Alpha virt. eigenvalues --    1.14334   1.14864   1.15474   1.16178   1.16442
 Alpha virt. eigenvalues --    1.17322   1.18000   1.18539   1.18678   1.18755
 Alpha virt. eigenvalues --    1.19754   1.19895   1.20415   1.20630   1.21406
 Alpha virt. eigenvalues --    1.21903   1.22655   1.22893   1.23797   1.24655
 Alpha virt. eigenvalues --    1.24780   1.25641   1.26846   1.26907   1.27901
 Alpha virt. eigenvalues --    1.29005   1.29347   1.29892   1.30595   1.32102
 Alpha virt. eigenvalues --    1.33023   1.33912   1.34925   1.35810   1.37813
 Alpha virt. eigenvalues --    1.42438   1.42718   1.43155   1.44987   1.46732
 Alpha virt. eigenvalues --    1.48024   1.48890   1.49792   1.50074   1.51021
 Alpha virt. eigenvalues --    1.51711   1.52435   1.53436   1.53521   1.53914
 Alpha virt. eigenvalues --    1.54166   1.54890   1.55441   1.55991   1.56185
 Alpha virt. eigenvalues --    1.57124   1.57267   1.57524   1.57867   1.58095
 Alpha virt. eigenvalues --    1.58330   1.58698   1.59201   1.59434   1.60008
 Alpha virt. eigenvalues --    1.60414   1.61573   1.61895   1.62197   1.62548
 Alpha virt. eigenvalues --    1.63260   1.63612   1.63842   1.64068   1.64685
 Alpha virt. eigenvalues --    1.65514   1.65845   1.65977   1.66725   1.67000
 Alpha virt. eigenvalues --    1.67597   1.67976   1.68572   1.69973   1.70775
 Alpha virt. eigenvalues --    1.71235   1.71587   1.71761   1.72440   1.72790
 Alpha virt. eigenvalues --    1.73213   1.73433   1.73650   1.74805   1.75269
 Alpha virt. eigenvalues --    1.75630   1.76279   1.77167   1.77405   1.77723
 Alpha virt. eigenvalues --    1.78072   1.78329   1.78578   1.78943   1.79052
 Alpha virt. eigenvalues --    1.79458   1.79836   1.80280   1.80701   1.81366
 Alpha virt. eigenvalues --    1.81412   1.81591   1.81991   1.82490   1.82822
 Alpha virt. eigenvalues --    1.83292   1.83472   1.83705   1.84669   1.85084
 Alpha virt. eigenvalues --    1.85495   1.85545   1.86057   1.86501   1.86635
 Alpha virt. eigenvalues --    1.87027   1.87246   1.87364   1.87510   1.88464
 Alpha virt. eigenvalues --    1.89845   1.89895   1.90663   1.91015   1.92417
 Alpha virt. eigenvalues --    1.92626   1.93198   1.94604   1.95073   1.96925
 Alpha virt. eigenvalues --    1.97432   1.97874   1.99269   2.01033   2.01590
 Alpha virt. eigenvalues --    2.04121   2.05694   2.09173   2.09539   2.12050
 Alpha virt. eigenvalues --    2.15218   2.18702   2.31840   2.33218   2.33882
 Alpha virt. eigenvalues --    2.34352   2.34803   2.34971   2.35329   2.35639
 Alpha virt. eigenvalues --    2.36529   2.36618   2.36984   2.38224   2.39640
 Alpha virt. eigenvalues --    2.40101   2.40539   2.41262   2.42672   2.44525
 Alpha virt. eigenvalues --    2.45399   2.46455   2.48049   2.49935   2.52446
 Alpha virt. eigenvalues --    2.56027   2.56868   2.58590   2.58978   2.59461
 Alpha virt. eigenvalues --    2.60099   2.60324   2.60677   2.61169   2.61488
 Alpha virt. eigenvalues --    2.61848   2.61889   2.62344   2.62541   2.62914
 Alpha virt. eigenvalues --    2.62967   2.63107   2.63440   2.63502   2.64112
 Alpha virt. eigenvalues --    2.64149   2.64586   2.65085   2.65485   2.65513
 Alpha virt. eigenvalues --    2.65671   2.65867   2.65969   2.67949   2.68498
 Alpha virt. eigenvalues --    2.69427   2.69901   2.70183   2.71204   2.72755
 Alpha virt. eigenvalues --    2.73988   2.74645   2.75173   2.76441   2.77172
 Alpha virt. eigenvalues --    2.77403   2.77773   2.81914   2.82688   2.85033
 Alpha virt. eigenvalues --    2.86970   2.93835   3.39943   3.40539   3.40828
 Alpha virt. eigenvalues --    3.41405   3.41631   3.42034   3.43338   3.44113
 Alpha virt. eigenvalues --    3.44984   3.45943   3.46588   3.47474   3.47634
 Alpha virt. eigenvalues --    3.49389   3.49774   3.52512   3.54928   3.55373
 Alpha virt. eigenvalues --    4.69987   6.16508   6.54417   7.78964
          Condensed to atoms (all electrons):
 Mulliken charges:
               1
     1  Si   1.288618
     2  O   -0.643242
     3  O   -0.652693
     4  O   -0.653168
     5  O   -0.760762
     6  Zr   1.623292
     7  Si   1.105327
     8  Si   1.157152
     9  Si   1.133744
    10  O   -0.819364
    11  Zr   1.495513
    12  O   -0.823485
    13  Zr   1.593647
    14  O   -0.827407
    15  Zr   1.551177
    16  O   -0.626541
    17  O   -0.574180
    18  O   -0.665859
    19  O   -0.627330
    20  O   -0.613228
    21  O   -0.604947
    22  O   -0.579470
    23  O   -0.652871
    24  O   -0.618796
    25  H    0.354868
    26  H    0.334006
    27  H    0.367051
    28  H    0.368961
    29  H    0.365468
    30  H    0.337663
    31  H    0.336504
    32  H    0.340325
    33  H    0.342950
    34  O   -0.695354
    35  H    0.332475
    36  O   -0.706939
    37  H    0.365501
    38  O   -0.750040
    39  H    0.331296
    40  O   -0.763938
    41  H    0.371507
    42  O   -0.694272
    43  H    0.333924
    44  O   -0.699467
    45  H    0.335201
    46  O   -0.762636
    47  H    0.380498
    48  O   -0.741534
    49  H    0.340074
    50  O   -0.682472
    51  H    0.353252
 Sum of Mulliken charges =  -0.00000
 Mulliken charges with hydrogens summed into heavy atoms:
               1
     1  Si   1.288618
     2  O   -0.643242
     3  O   -0.652693
     4  O   -0.653168
     5  O   -0.760762
     6  Zr   1.623292
     7  Si   1.105327
     8  Si   1.157152
     9  Si   1.133744
    10  O   -0.819364
    11  Zr   1.495513
    12  O   -0.823485
    13  Zr   1.593647
    14  O   -0.827407
    15  Zr   1.551177
    16  O   -0.288878
    17  O   -0.237676
    18  O   -0.300392
    19  O   -0.284380
    20  O   -0.244266
    21  O   -0.264623
    22  O   -0.245464
    23  O   -0.298003
    24  O   -0.251745
    34  O   -0.362879
    36  O   -0.341438
    38  O   -0.418744
    40  O   -0.392431
    42  O   -0.360348
    44  O   -0.364266
    46  O   -0.382138
    48  O   -0.401460
    50  O   -0.329220
 Electronic spatial extent (au):  <R**2>=          26849.8884
 Charge=             -0.0000 electrons
 Dipole moment (field-independent basis, Debye):
    X=              3.5087    Y=              4.1700    Z=              1.7139  Tot=              5.7129
 Quadrupole moment (field-independent basis, Debye-Ang):
   XX=           -300.3389   YY=           -256.6742   ZZ=           -261.3735
   XY=              2.4079   XZ=             11.6717   YZ=             -8.5303
 Traceless Quadrupole moment (field-independent basis, Debye-Ang):
   XX=            -27.5434   YY=             16.1213   ZZ=             11.4221
   XY=              2.4079   XZ=             11.6717   YZ=             -8.5303
 Octapole moment (field-independent basis, Debye-Ang**2):
  XXX=            368.6204  YYY=            109.8366  ZZZ=            -56.5544  XYY=            153.5222
  XXY=             32.4438  XXZ=             26.4619  XZZ=            165.1913  YZZ=             29.3361
  YYZ=            -11.9269  XYZ=             64.1171
 Hexadecapole moment (field-independent basis, Debye-Ang**3):
 XXXX=         -24819.4547 YYYY=          -5793.4829 ZZZZ=          -5284.3249 XXXY=            331.3662
 XXXZ=             68.7264 YYYX=            107.8433 YYYZ=             47.8973 ZZZX=            164.3661
 ZZZY=            -69.9653 XXYY=          -4944.1795 XXZZ=          -4391.5128 YYZZ=          -1750.7596
 XXYZ=           -544.0149 YYXZ=           -235.2738 ZZXY=             98.7675
 N-N= 5.548564648649D+03 E-N=-1.869825827991D+04  KE= 3.091257267586D+03
   1 Symmetry operations used in ECPInt.
 ECPInt:  NShTT=   21321 NPrTT=  126439 LenC2=   15018 LenP2D=   50153.
 LDataN:  DoStor=T MaxTD1= 6 Len=  172
 Number of processors reduced to  14 by ecpmxn.
 Calling FoFJK, ICntrl=      2127 FMM=F ISym2X=0 I1Cent= 0 IOpClX= 0 NMat=1 NMatS=1 NMatT=0.
 Defaulting to unpruned grid for atomic number  40.
 Defaulting to unpruned grid for atomic number  40.
 Defaulting to unpruned grid for atomic number  40.
 Defaulting to unpruned grid for atomic number  40.
 Defaulting to unpruned grid for atomic number  40.
 Defaulting to unpruned grid for atomic number  40.
 Defaulting to unpruned grid for atomic number  40.
 Defaulting to unpruned grid for atomic number  40.
 Defaulting to unpruned grid for atomic number  40.
 Defaulting to unpruned grid for atomic number  40.
 Defaulting to unpruned grid for atomic number  40.
 Defaulting to unpruned grid for atomic number  40.
 Defaulting to unpruned grid for atomic number  40.
 Defaulting to unpruned grid for atomic number  40.
 Defaulting to unpruned grid for atomic number  40.
 Defaulting to unpruned grid for atomic number  40.
 ***** Axes restored to original set *****
 -------------------------------------------------------------------
 Center     Atomic                   Forces (Hartrees/Bohr)
 Number     Number              X              Y              Z
 -------------------------------------------------------------------
      1       14           0.003566669   -0.001360740    0.004841995
      2        8          -0.000429616    0.000859038   -0.002064077
      3        8          -0.000058259    0.000274385   -0.000595755
      4        8          -0.000030979    0.000033321   -0.000722950
      5        8           0.002375061    0.000374508   -0.002597235
      6       40          -0.004465858   -0.000494258    0.003464911
      7       14           0.003371000    0.000307952    0.000213433
      8       14           0.000662932   -0.000657555    0.000392381
      9       14           0.000416634    0.000243938    0.000738422
     10        8           0.000779897   -0.000761145   -0.000604694
     11       40          -0.000431399    0.000775312   -0.000071825
     12        8           0.004294401   -0.003459018   -0.003229918
     13       40          -0.006234146    0.008623320   -0.008149689
     14        8           0.000925127    0.000739563   -0.000397060
     15       40          -0.000701182   -0.000237984    0.000233704
     16        8          -0.000192036    0.000040720   -0.000233388
     17        8          -0.000093129    0.000234728   -0.000045138
     18        8          -0.000340895    0.000224187   -0.000351640
     19        8          -0.000830887   -0.000325043   -0.000377140
     20        8          -0.001018530    0.000401983   -0.000081905
     21        8           0.006102092    0.003577057   -0.006918767
     22        8          -0.000068191   -0.000082298   -0.000238518
     23        8          -0.000158167   -0.000041694   -0.000185960
     24        8          -0.000202826   -0.000168756   -0.000458059
     25        1          -0.000010220   -0.000047151    0.000059335
     26        1           0.000010812    0.000036190    0.000046426
     27        1           0.000220106    0.000291538    0.000420813
     28        1           0.000405581   -0.000233188    0.000267038
     29        1           0.000131052    0.000088951    0.000051355
     30        1           0.000014051   -0.000020006    0.000068173
     31        1           0.000003113   -0.000118407    0.000052122
     32        1          -0.006913455   -0.004121886    0.007438139
     33        1           0.000308417    0.000184901    0.000057062
     34        8          -0.000052498   -0.000077051   -0.000045131
     35        1           0.000015735    0.000010315    0.000008630
     36        8           0.000083621   -0.000134972    0.000047011
     37        1          -0.000073879    0.000111178   -0.000002278
     38        8          -0.000021322   -0.000215600    0.000231692
     39        1           0.000022508    0.000009436   -0.000000212
     40        8           0.000390803   -0.000232717    0.000158813
     41        1          -0.000106221    0.000150180   -0.000289352
     42        8           0.000044314    0.000057119   -0.000171110
     43        1           0.000001525   -0.000017894    0.000022360
     44        8           0.000087287    0.000103923    0.000042573
     45        1          -0.000039839   -0.000016927   -0.000013642
     46        8          -0.000129001   -0.000100021    0.000663444
     47        1           0.000103647   -0.000063688   -0.000308602
     48        8          -0.000024954   -0.000399712    0.000466517
     49        1           0.000110311    0.000159500   -0.000178602
     50        8          -0.009885563   -0.001184410    0.008995111
     51        1           0.008066357   -0.003341121   -0.000648815
 -------------------------------------------------------------------
 Cartesian Forces:  Max     0.009885563 RMS     0.002297006

 GradGradGradGradGradGradGradGradGradGradGradGradGradGradGradGradGradGrad
 Berny optimization.
 FormGI is forming the generalized inverse of G from B-inverse, IUseBI=4.
 Internal  Forces:  Max     0.011414058 RMS     0.001883257
 Search for a local minimum.
 Step number   1 out of a maximum of  229
 All quantities printed in internal units (Hartrees-Bohrs-Radians)
 Mixed Optimization -- RFO/linear search
 Second derivative matrix not updated -- first step.
 ITU=  0
     Eigenvalues ---    0.00230   0.00230   0.00230   0.00230   0.00230
     Eigenvalues ---    0.00230   0.00230   0.00230   0.00230   0.00230
     Eigenvalues ---    0.00230   0.00230   0.00230   0.00230   0.00230
     Eigenvalues ---    0.00230   0.03447   0.03470   0.03516   0.03601
     Eigenvalues ---    0.03614   0.03629   0.03654   0.03686   0.03816
     Eigenvalues ---    0.03823   0.03827   0.03839   0.03923   0.03964
     Eigenvalues ---    0.04008   0.04039   0.06239   0.08354   0.08564
     Eigenvalues ---    0.08974   0.09448   0.10123   0.10678   0.11232
     Eigenvalues ---    0.11368   0.11507   0.11595   0.11636   0.11773
     Eigenvalues ---    0.11825   0.11923   0.12003   0.12146   0.12566
     Eigenvalues ---    0.12661   0.12746   0.12781   0.12915   0.12948
     Eigenvalues ---    0.13420   0.16000   0.16000   0.16000   0.16000
     Eigenvalues ---    0.16000   0.16000   0.16000   0.16000   0.16000
     Eigenvalues ---    0.16000   0.16000   0.16000   0.16000   0.16000
     Eigenvalues ---    0.16000   0.16000   0.16000   0.16000   0.16475
     Eigenvalues ---    0.16653   0.16973   0.17555   0.17903   0.18060
     Eigenvalues ---    0.18628   0.18751   0.19259   0.19512   0.19625
     Eigenvalues ---    0.19663   0.19719   0.19732   0.19849   0.20192
     Eigenvalues ---    0.20247   0.20296   0.20320   0.20376   0.20393
     Eigenvalues ---    0.20422   0.20645   0.20651   0.20806   0.20823
     Eigenvalues ---    0.20868   0.21021   0.21050   0.21076   0.21269
     Eigenvalues ---    0.21906   0.25000   0.25000   0.25000   0.25000
     Eigenvalues ---    0.25000   0.25000   0.40115   0.40361   0.40848
     Eigenvalues ---    0.41777   0.41931   0.42098   0.42374   0.42741
     Eigenvalues ---    0.44274   0.44356   0.44406   0.44546   0.45586
     Eigenvalues ---    0.46106   0.46669   0.47064   0.51271   0.51299
     Eigenvalues ---    0.51607   0.51682   0.51717   0.52103   0.52343
     Eigenvalues ---    0.52513   0.53065   0.54681   0.54684   0.54736
     Eigenvalues ---    0.54742   0.54756   0.54764   0.55003   0.55452
     Eigenvalues ---    0.556801000.000001000.000001000.000001000.00000
     Eigenvalues --- 1000.000001000.000001000.000001000.000001000.00000
     Eigenvalues --- 1000.000001000.000001000.000001000.000001000.00000
     Eigenvalues --- 1000.000001000.000001000.000001000.000001000.00000
     Eigenvalues --- 1000.000001000.000001000.000001000.000001000.00000
     Eigenvalues --- 1000.000001000.000001000.000001000.000001000.00000
     Eigenvalues --- 1000.000001000.000001000.000001000.000001000.00000
     Eigenvalues --- 1000.000001000.000001000.000001000.000001000.00000
     Eigenvalues --- 1000.000001000.000001000.000001000.000001000.00000
     Eigenvalues --- 1000.000001000.000001000.000001000.000001000.00000
     Eigenvalues --- 1000.000001000.000001000.000001000.000001000.00000
     Eigenvalues --- 1000.000001000.000001000.000001000.000001000.00000
     Eigenvalues --- 1000.000001000.000001000.000001000.000001000.00000
     Eigenvalues --- 1000.000001000.000001000.000001000.000001000.00000
     Eigenvalues --- 1000.000001000.000001000.000001000.00000
 RFO step:  Lambda=-3.31882931D-03 EMin= 2.30000000D-03
 Linear search not attempted -- first point.
 Iteration  1 RMS(Cart)=  0.15137147 RMS(Int)=  0.00403386
 Iteration  2 RMS(Cart)=  0.01127420 RMS(Int)=  0.00003120
 Iteration  3 RMS(Cart)=  0.00005430 RMS(Int)=  0.00002381
 Iteration  4 RMS(Cart)=  0.00000000 RMS(Int)=  0.00002381
 Iteration  1 RMS(Cart)=  0.00000000 RMS(Int)=  0.00000000
 Variable       Old X    -DE/DX   Delta X   Delta X   Delta X     New X
                                 (Linear)    (Quad)   (Total)
    R1        3.09828  -0.00152   0.00000  -0.00342  -0.00342   3.09486
    R2        3.12499  -0.00002   0.00000  -0.00005  -0.00005   3.12495
    R3        3.09671  -0.00008   0.00000  -0.00017  -0.00017   3.09654
    R4        3.06649  -0.00366   0.00000  -0.00773  -0.00773   3.05876
    R5        3.07712   0.00035   0.00000   0.00075   0.00075   3.07787
    R6        3.11691  -0.00023   0.00000  -0.00053  -0.00053   3.11638
    R7        3.14118  -0.00025   0.00000  -0.00061  -0.00061   3.14057
    R8        3.80049  -0.00720   0.00000  -0.04027  -0.04027   3.76022
    R9        3.64786   0.00055   0.00000   0.00249   0.00249   3.65035
   R10        3.82477  -0.00373   0.00000  -0.02158  -0.02158   3.80320
   R11        3.72226   0.00087   0.00000   0.00435   0.00435   3.72662
   R12        3.15098   0.00031   0.00000   0.00077   0.00077   3.15175
   R13        3.08301   0.00059   0.00000   0.00129   0.00129   3.08429
   R14        3.12149  -0.00048   0.00000  -0.00113  -0.00113   3.12036
   R15        3.12908   0.00023   0.00000   0.00054   0.00054   3.12963
   R16        3.09506   0.00012   0.00000   0.00027   0.00027   3.09534
   R17        3.12711  -0.00035   0.00000  -0.00084  -0.00084   3.12627
   R18        3.09730   0.00020   0.00000   0.00045   0.00045   3.09775
   R19        3.14766   0.00006   0.00000   0.00015   0.00015   3.14782
   R20        3.07084  -0.00010   0.00000  -0.00022  -0.00022   3.07062
   R21        3.84640  -0.00067   0.00000  -0.00397  -0.00397   3.84243
   R22        3.71852   0.00006   0.00000   0.00028   0.00028   3.71880
   R23        3.67544  -0.00001   0.00000  -0.00005  -0.00005   3.67539
   R24        3.83858   0.00027   0.00000   0.00159   0.00159   3.84017
   R25        3.72623  -0.00823   0.00000  -0.04147  -0.04147   3.68476
   R26        3.78032  -0.00016   0.00000  -0.00087  -0.00087   3.77945
   R27        3.78651  -0.00007   0.00000  -0.00037  -0.00037   3.78614
   R28        3.66754   0.00965   0.00000   0.04468   0.04468   3.71223
   R29        3.75386  -0.00037   0.00000  -0.00192  -0.00192   3.75194
   R30        3.75847   0.00018   0.00000   0.00097   0.00097   3.75945
   R31        3.69499   0.00016   0.00000   0.00077   0.00077   3.69576
   R32        3.68181   0.00009   0.00000   0.00043   0.00043   3.68224
   R33        1.82117  -0.00006   0.00000  -0.00012  -0.00012   1.82105
   R34        1.82049  -0.00004   0.00000  -0.00007  -0.00007   1.82043
   R35        1.85304  -0.00014   0.00000  -0.00026  -0.00026   1.85278
   R36        1.82114  -0.00019   0.00000  -0.00034  -0.00034   1.82080
   R37        1.84977  -0.00053   0.00000  -0.00101  -0.00101   1.84876
   R38        1.84500  -0.01087   0.00000  -0.02073  -0.02073   1.82427
   R39        1.82042  -0.00003   0.00000  -0.00005  -0.00005   1.82037
   R40        1.83593  -0.00007   0.00000  -0.00012  -0.00012   1.83581
   R41        1.84272   0.00053   0.00000   0.00101   0.00101   1.84373
   R42        1.81829   0.00000   0.00000   0.00000   0.00000   1.81829
   R43        1.84905   0.00006   0.00000   0.00011   0.00011   1.84916
   R44        1.82067  -0.00001   0.00000  -0.00001  -0.00001   1.82065
   R45        1.85277  -0.00033   0.00000  -0.00065  -0.00065   1.85212
   R46        1.81433  -0.00003   0.00000  -0.00005  -0.00005   1.81428
   R47        1.81232  -0.00001   0.00000  -0.00001  -0.00001   1.81231
   R48        1.84871   0.00011   0.00000   0.00021   0.00021   1.84892
   R49        1.82062  -0.00002   0.00000  -0.00004  -0.00004   1.82057
   R50        1.84112  -0.00757   0.00000  -0.01433  -0.01433   1.82678
    A1        1.89403   0.00149   0.00000   0.00947   0.00947   1.90350
    A2        1.88617  -0.00041   0.00000  -0.00232  -0.00234   1.88383
    A3        1.87938  -0.00071   0.00000  -0.00416  -0.00417   1.87521
    A4        1.91364  -0.00018   0.00000  -0.00008  -0.00008   1.91356
    A5        1.92354  -0.00013   0.00000  -0.00024  -0.00024   1.92329
    A6        1.96515  -0.00000   0.00000  -0.00226  -0.00227   1.96289
    A7        2.84348   0.00092   0.00000   0.00363   0.00363   2.84711
    A8        2.31720   0.00025   0.00000   0.00100   0.00100   2.31821
    A9        2.35610  -0.00119   0.00000  -0.00469  -0.00469   2.35141
   A10        2.70704  -0.01141   0.00000   0.00000  -0.00000   2.70704
   A11        1.98022   0.00162   0.00000   0.00931   0.00915   1.98937
   A12        1.98271  -0.00595   0.00000  -0.03994  -0.03990   1.94281
   A13        1.99112   0.00160   0.00000   0.01022   0.01013   2.00126
   A14        1.77332   0.00147   0.00000   0.00471   0.00466   1.77798
   A15        1.88957  -0.00116   0.00000   0.00468   0.00453   1.89410
   A16        1.82833   0.00249   0.00000   0.01126   0.01126   1.83959
   A17        1.81235  -0.00112   0.00000  -0.00668  -0.00669   1.80566
   A18        1.98544  -0.00040   0.00000  -0.00158  -0.00163   1.98381
   A19        1.86767   0.00246   0.00000   0.01608   0.01607   1.88374
   A20        1.94580  -0.00009   0.00000  -0.00462  -0.00464   1.94116
   A21        1.92845  -0.00034   0.00000  -0.00208  -0.00207   1.92638
   A22        1.92030  -0.00045   0.00000  -0.00066  -0.00069   1.91962
   A23        1.94596  -0.00012   0.00000  -0.00064  -0.00064   1.94532
   A24        1.88055  -0.00009   0.00000  -0.00033  -0.00033   1.88022
   A25        1.93311   0.00045   0.00000   0.00288   0.00288   1.93599
   A26        1.93173  -0.00002   0.00000  -0.00081  -0.00081   1.93092
   A27        1.82723  -0.00012   0.00000  -0.00064  -0.00064   1.82659
   A28        1.94617  -0.00010   0.00000  -0.00044  -0.00044   1.94572
   A29        1.88532  -0.00004   0.00000  -0.00028  -0.00028   1.88504
   A30        1.89442   0.00028   0.00000   0.00149   0.00149   1.89591
   A31        1.95715  -0.00024   0.00000  -0.00121  -0.00121   1.95594
   A32        1.87632  -0.00018   0.00000  -0.00079  -0.00079   1.87553
   A33        1.94135   0.00017   0.00000   0.00065   0.00065   1.94200
   A34        1.90697   0.00001   0.00000   0.00018   0.00018   1.90715
   A35        2.53227  -0.00058   0.00000  -0.00229  -0.00229   2.52998
   A36        1.81826   0.00012   0.00000   0.00120   0.00120   1.81947
   A37        1.87906   0.00002   0.00000  -0.00030  -0.00031   1.87876
   A38        2.09285  -0.00020   0.00000  -0.00157  -0.00157   2.09127
   A39        1.80038   0.00004   0.00000   0.00101   0.00101   1.80140
   A40        1.73311   0.00005   0.00000   0.00086   0.00086   1.73397
   A41        2.08556   0.00004   0.00000  -0.00023  -0.00023   2.08533
   A42        2.29330   0.00361   0.00000   0.01425   0.01425   2.30755
   A43        1.83467  -0.00111   0.00000  -0.00403  -0.00401   1.83066
   A44        1.90443  -0.00105   0.00000  -0.00260  -0.00264   1.90179
   A45        1.85062   0.00408   0.00000   0.02903   0.02905   1.87966
   A46        1.91621   0.00067   0.00000  -0.00520  -0.00529   1.91092
   A47        1.99551  -0.00149   0.00000  -0.00973  -0.00981   1.98571
   A48        1.95546  -0.00101   0.00000  -0.00580  -0.00591   1.94954
   A49        2.44669   0.00057   0.00000   0.00224   0.00224   2.44893
   A50        1.83016   0.00034   0.00000   0.00252   0.00252   1.83268
   A51        1.92532  -0.00010   0.00000  -0.00066  -0.00066   1.92466
   A52        1.89530  -0.00005   0.00000   0.00011   0.00011   1.89540
   A53        1.89947  -0.00020   0.00000  -0.00127  -0.00127   1.89820
   A54        1.93644   0.00001   0.00000   0.00025   0.00025   1.93669
   A55        1.97197   0.00001   0.00000  -0.00071  -0.00071   1.97127
   A56        2.03455  -0.00006   0.00000  -0.00035  -0.00035   2.03420
   A57        2.01642  -0.00017   0.00000  -0.00102  -0.00102   2.01540
   A58        1.93923  -0.00001   0.00000  -0.00009  -0.00009   1.93915
   A59        2.03937  -0.00040   0.00000  -0.00242  -0.00242   2.03695
   A60        1.98603  -0.00018   0.00000  -0.00110  -0.00110   1.98493
   A61        1.92108   0.00219   0.00000   0.01342   0.01342   1.93450
   A62        2.02348  -0.00009   0.00000  -0.00058  -0.00058   2.02291
[...]
     50          8           0        0.968577   -1.907676    3.676565
     51          1           0        0.002640   -1.832413    3.778158
 ---------------------------------------------------------------------
 Rotational constants (GHZ):           0.0858575           0.0380451           0.0355505

 **********************************************************************

            Population analysis using the SCF Density.

 **********************************************************************

 Orbital symmetries:
       Occupied  (A) (A) (A) (A) (A) (A) (A) (A) (A) (A) (A) (A)
                 (A) (A) (A) (A) (A) (A) (A) (A) (A) (A) (A) (A)
                 (A) (A) (A) (A) (A) (A) (A) (A) (A) (A) (A) (A)
                 (A) (A) (A) (A) (A) (A) (A) (A) (A) (A) (A) (A)
                 (A) (A) (A) (A) (A) (A) (A) (A) (A) (A) (A) (A)
                 (A) (A) (A) (A) (A) (A) (A) (A) (A) (A) (A) (A)
                 (A) (A) (A) (A) (A) (A) (A) (A) (A) (A) (A) (A)
                 (A) (A) (A) (A) (A) (A) (A) (A) (A) (A) (A) (A)
                 (A) (A) (A) (A) (A) (A) (A) (A) (A) (A) (A) (A)
                 (A) (A) (A) (A) (A) (A) (A) (A) (A) (A) (A) (A)
                 (A) (A) (A) (A) (A) (A) (A) (A) (A) (A) (A) (A)
                 (A) (A) (A) (A) (A) (A) (A) (A) (A) (A) (A) (A)
                 (A) (A) (A) (A) (A) (A) (A) (A) (A) (A) (A) (A)
                 (A) (A) (A) (A) (A)
       Virtual   (A) (A) (A) (A) (A) (A) (A) (A) (A) (A) (A) (A)
                 (A) (A) (A) (A) (A) (A) (A) (A) (A) (A) (A) (A)
                 (A) (A) (A) (A) (A) (A) (A) (A) (A) (A) (A) (A)
                 (A) (A) (A) (A) (A) (A) (A) (A) (A) (A) (A) (A)
                 (A) (A) (A) (A) (A) (A) (A) (A) (A) (A) (A) (A)
                 (A) (A) (A) (A) (A) (A) (A) (A) (A) (A) (A) (A)
                 (A) (A) (A) (A) (A) (A) (A) (A) (A) (A) (A) (A)
                 (A) (A) (A) (A) (A) (A) (A) (A) (A) (A) (A) (A)
                 (A) (A) (A) (A) (A) (A) (A) (A) (A) (A) (A) (A)
                 (A) (A) (A) (A) (A) (A) (A) (A) (A) (A) (A) (A)
                 (A) (A) (A) (A) (A) (A) (A) (A) (A) (A) (A) (A)
                 (A) (A) (A) (A) (A) (A) (A) (A) (A) (A) (A) (A)
                 (A) (A) (A) (A) (A) (A) (A) (A) (A) (A) (A) (A)
                 (A) (A) (A) (A) (A) (A) (A) (A) (A) (A) (A) (A)
                 (A) (A) (A) (A) (A) (A) (A) (A) (A) (A) (A) (A)
                 (A) (A) (A) (A) (A) (A) (A) (A) (A) (A) (A) (A)
                 (A) (A) (A) (A) (A) (A) (A) (A) (A) (A) (A) (A)
                 (A) (A) (A) (A) (A) (A) (A) (A) (A) (A) (A) (A)
                 (A) (A) (A) (A) (A) (A) (A) (A) (A) (A) (A) (A)
                 (A) (A) (A) (A) (A) (A) (A) (A) (A) (A) (A) (A)
                 (A) (A) (A) (A) (A) (A) (A) (A) (A) (A) (A) (A)
                 (A) (A) (A) (A) (A) (A) (A) (A) (A) (A) (A) (A)
                 (A) (A) (A) (A) (A) (A) (A) (A) (A) (A) (A) (A)
                 (A) (A) (A) (A) (A) (A) (A) (A) (A) (A) (A) (A)
                 (A) (A) (A) (A) (A) (A) (A) (A) (A) (A) (A) (A)
                 (A) (A) (A) (A) (A) (A) (A) (A) (A) (A) (A) (A)
                 (A) (A) (A) (A) (A) (A) (A) (A) (A) (A) (A) (A)
                 (A) (A) (A) (A) (A) (A) (A) (A) (A) (A) (A) (A)
                 (A) (A) (A) (A) (A) (A) (A) (A) (A) (A) (A) (A)
                 (A) (A) (A) (A) (A) (A) (A) (A) (A) (A) (A) (A)
                 (A) (A) (A) (A) (A) (A) (A) (A) (A) (A) (A) (A)
                 (A) (A) (A) (A) (A) (A) (A) (A) (A) (A) (A) (A)
                 (A) (A) (A) (A) (A) (A) (A) (A) (A) (A) (A) (A)
                 (A) (A) (A) (A) (A) (A) (A) (A) (A) (A) (A) (A)
                 (A) (A) (A) (A) (A) (A) (A) (A) (A) (A) (A) (A)
                 (A) (A) (A) (A) (A) (A) (A) (A) (A) (A) (A) (A)
                 (A) (A) (A) (A) (A) (A) (A)
 The electronic state is 1-A.
 Alpha  occ. eigenvalues --  -66.22048 -66.21787 -66.21219 -66.20213 -19.16974
 Alpha  occ. eigenvalues --  -19.16701 -19.16354 -19.16353 -19.16002 -19.15962
 Alpha  occ. eigenvalues --  -19.15886 -19.15808 -19.15738 -19.15670 -19.15573
 Alpha  occ. eigenvalues --  -19.15361 -19.14726 -19.14701 -19.14595 -19.14449
 Alpha  occ. eigenvalues --  -19.14361 -19.14298 -19.14269 -19.14231 -19.13401
 Alpha  occ. eigenvalues --  -19.13262 -19.12567 -19.12082 -19.11629  -5.36020
 Alpha  occ. eigenvalues --   -5.36020  -5.35407  -5.34418  -3.72054  -3.71985
 Alpha  occ. eigenvalues --   -3.71967  -3.71958  -3.71928  -3.71918  -3.71478
 Alpha  occ. eigenvalues --   -3.71316  -3.71252  -3.70406  -3.70370  -3.70295
 Alpha  occ. eigenvalues --   -2.08220  -2.06992  -2.06885  -2.05075  -1.29292
 Alpha  occ. eigenvalues --   -1.28895  -1.28479  -1.28055  -1.27821  -1.27763
 Alpha  occ. eigenvalues --   -1.27253  -1.27227  -1.26785  -1.25716  -1.25458
 Alpha  occ. eigenvalues --   -1.25138  -1.05221  -1.04158  -1.03059  -1.01813
 Alpha  occ. eigenvalues --   -1.01346  -1.01016  -1.00860  -0.99737  -0.99475
 Alpha  occ. eigenvalues --   -0.98724  -0.98451  -0.98302  -0.97950  -0.97378
 Alpha  occ. eigenvalues --   -0.96779  -0.96256  -0.95561  -0.95271  -0.95058
 Alpha  occ. eigenvalues --   -0.93877  -0.93646  -0.92092  -0.91221  -0.89560
 Alpha  occ. eigenvalues --   -0.88441  -0.61616  -0.59546  -0.58712  -0.55922
 Alpha  occ. eigenvalues --   -0.54212  -0.53315  -0.52222  -0.52075  -0.51354
 Alpha  occ. eigenvalues --   -0.51331  -0.51061  -0.50952  -0.50452  -0.50245
 Alpha  occ. eigenvalues --   -0.50206  -0.49075  -0.48950  -0.47757  -0.46745
 Alpha  occ. eigenvalues --   -0.46192  -0.45659  -0.44745  -0.42927  -0.41877
 Alpha  occ. eigenvalues --   -0.41712  -0.41157  -0.40585  -0.40402  -0.39928
 Alpha  occ. eigenvalues --   -0.39689  -0.39466  -0.39143  -0.39046  -0.38410
 Alpha  occ. eigenvalues --   -0.37865  -0.37595  -0.37365  -0.36894  -0.36881
 Alpha  occ. eigenvalues --   -0.36561  -0.36225  -0.35907  -0.35712  -0.35650
 Alpha  occ. eigenvalues --   -0.35482  -0.35214  -0.34976  -0.34740  -0.34676
 Alpha  occ. eigenvalues --   -0.34646  -0.34361  -0.34223  -0.34047  -0.33948
 Alpha  occ. eigenvalues --   -0.33799  -0.33506  -0.33357  -0.33081  -0.32987
 Alpha  occ. eigenvalues --   -0.32806  -0.32624  -0.32532  -0.32250  -0.31989
 Alpha  occ. eigenvalues --   -0.31865  -0.31625  -0.31486  -0.31183  -0.31094
 Alpha  occ. eigenvalues --   -0.30858  -0.30702  -0.30251  -0.29509  -0.29122
 Alpha  occ. eigenvalues --   -0.28577
 Alpha virt. eigenvalues --   -0.05189  -0.04783  -0.04407  -0.03525  -0.02876
 Alpha virt. eigenvalues --   -0.02700  -0.02001  -0.01700  -0.01360  -0.01021
 Alpha virt. eigenvalues --   -0.00710  -0.00631  -0.00389   0.00043   0.00495
 Alpha virt. eigenvalues --    0.00625   0.00853   0.01401   0.01540   0.01791
 Alpha virt. eigenvalues --    0.02203   0.02421   0.02701   0.02813   0.03291
 Alpha virt. eigenvalues --    0.03717   0.04139   0.04185   0.04992   0.05433
 Alpha virt. eigenvalues --    0.05789   0.05856   0.06204   0.06440   0.07122
 Alpha virt. eigenvalues --    0.07996   0.08342   0.08707   0.09639   0.10120
 Alpha virt. eigenvalues --    0.10415   0.11272   0.11499   0.12325   0.12828
 Alpha virt. eigenvalues --    0.13347   0.14004   0.14484   0.14912   0.15165
 Alpha virt. eigenvalues --    0.16098   0.16303   0.16366   0.16480   0.17004
 Alpha virt. eigenvalues --    0.17487   0.17812   0.18162   0.18454   0.18526
 Alpha virt. eigenvalues --    0.19247   0.19357   0.19936   0.20193   0.20563
 Alpha virt. eigenvalues --    0.20773   0.21160   0.21492   0.21958   0.22105
 Alpha virt. eigenvalues --    0.22410   0.22712   0.23065   0.23489   0.23895
 Alpha virt. eigenvalues --    0.24202   0.24332   0.24548   0.24891   0.25576
 Alpha virt. eigenvalues --    0.25741   0.26299   0.26713   0.27423   0.27573
 Alpha virt. eigenvalues --    0.28396   0.28882   0.28984   0.29752   0.29976
 Alpha virt. eigenvalues --    0.30028   0.30664   0.31113   0.31805   0.32638
 Alpha virt. eigenvalues --    0.33221   0.33526   0.34213   0.34360   0.35171
 Alpha virt. eigenvalues --    0.35784   0.36230   0.36813   0.37170   0.37576
 Alpha virt. eigenvalues --    0.38050   0.39647   0.40552   0.41334   0.41834
 Alpha virt. eigenvalues --    0.42406   0.44184   0.44580   0.46786   0.47248
 Alpha virt. eigenvalues --    0.49167   0.50243   0.52028   0.54844   0.56422
 Alpha virt. eigenvalues --    0.58192   0.59815   0.60783   0.64787   0.65116
 Alpha virt. eigenvalues --    0.66789   0.76809   0.77030   0.79003   0.79731
 Alpha virt. eigenvalues --    0.80294   0.80978   0.81073   0.82620   0.83835
 Alpha virt. eigenvalues --    0.83902   0.84221   0.84859   0.86213   0.86888
 Alpha virt. eigenvalues --    0.87142   0.88428   0.88928   0.89709   0.90161
 Alpha virt. eigenvalues --    0.90689   0.91837   0.92197   0.92422   0.93129
 Alpha virt. eigenvalues --    0.93298   0.93934   0.94520   0.94833   0.95478
 Alpha virt. eigenvalues --    0.96174   0.96524   0.96868   0.97142   0.97522
 Alpha virt. eigenvalues --    0.97623   0.97888   0.98187   0.98630   0.99117
 Alpha virt. eigenvalues --    0.99397   0.99990   1.00534   1.00726   1.01024
 Alpha virt. eigenvalues --    1.02252   1.02515   1.02753   1.03310   1.03909
 Alpha virt. eigenvalues --    1.04807   1.05524   1.05787   1.06303   1.06484
 Alpha virt. eigenvalues --    1.06949   1.07211   1.08151   1.08781   1.08842
 Alpha virt. eigenvalues --    1.09412   1.09913   1.10111   1.10351   1.10905
 Alpha virt. eigenvalues --    1.11856   1.12249   1.13093   1.13557   1.13683
 Alpha virt. eigenvalues --    1.14558   1.15773   1.15964   1.16471   1.17071
 Alpha virt. eigenvalues --    1.17257   1.17729   1.18547   1.19058   1.19236
 Alpha virt. eigenvalues --    1.19804   1.20114   1.21224   1.21392   1.21495
 Alpha virt. eigenvalues --    1.21997   1.22284   1.23153   1.23327   1.24264
 Alpha virt. eigenvalues --    1.25502   1.25911   1.26777   1.27352   1.28157
 Alpha virt. eigenvalues --    1.28296   1.29255   1.30193   1.30392   1.31702
 Alpha virt. eigenvalues --    1.33364   1.34054   1.35266   1.35539   1.38192
 Alpha virt. eigenvalues --    1.42907   1.43207   1.44150   1.45121   1.47061
 Alpha virt. eigenvalues --    1.48041   1.49105   1.50091   1.50817   1.51668
 Alpha virt. eigenvalues --    1.51881   1.52582   1.53728   1.53977   1.54580
 Alpha virt. eigenvalues --    1.55042   1.55596   1.55640   1.56022   1.56790
 Alpha virt. eigenvalues --    1.56909   1.57532   1.57879   1.58349   1.58482
 Alpha virt. eigenvalues --    1.59119   1.59385   1.60047   1.60344   1.60831
 Alpha virt. eigenvalues --    1.61041   1.61900   1.62189   1.62473   1.62872
 Alpha virt. eigenvalues --    1.63152   1.63802   1.64031   1.64211   1.65048
 Alpha virt. eigenvalues --    1.65539   1.65836   1.65996   1.66981   1.67285
 Alpha virt. eigenvalues --    1.67708   1.68016   1.68947   1.70225   1.70418
 Alpha virt. eigenvalues --    1.71266   1.71614   1.72075   1.72554   1.72857
 Alpha virt. eigenvalues --    1.73296   1.73789   1.74273   1.74897   1.75676
 Alpha virt. eigenvalues --    1.76194   1.76640   1.77378   1.77571   1.77950
 Alpha virt. eigenvalues --    1.78207   1.78292   1.78646   1.78924   1.79135
 Alpha virt. eigenvalues --    1.79668   1.80093   1.80400   1.81214   1.81378
 Alpha virt. eigenvalues --    1.81663   1.82222   1.82626   1.83000   1.83359
 Alpha virt. eigenvalues --    1.83771   1.83927   1.84494   1.85184   1.85312
 Alpha virt. eigenvalues --    1.85550   1.85680   1.86330   1.86418   1.87015
 Alpha virt. eigenvalues --    1.87263   1.87555   1.88173   1.88511   1.89309
 Alpha virt. eigenvalues --    1.90381   1.90916   1.91101   1.91694   1.92412
 Alpha virt. eigenvalues --    1.92764   1.94017   1.94450   1.95063   1.96426
 Alpha virt. eigenvalues --    1.97160   1.97888   2.00094   2.00689   2.01917
 Alpha virt. eigenvalues --    2.04348   2.06876   2.07951   2.10044   2.12312
 Alpha virt. eigenvalues --    2.16355   2.21283   2.24921   2.33675   2.33936
 Alpha virt. eigenvalues --    2.34592   2.34939   2.35071   2.36330   2.36559
 Alpha virt. eigenvalues --    2.36918   2.37764   2.37929   2.38934   2.39481
 Alpha virt. eigenvalues --    2.39701   2.40732   2.40949   2.42554   2.43916
 Alpha virt. eigenvalues --    2.44436   2.46311   2.46714   2.47653   2.51528
 Alpha virt. eigenvalues --    2.55856   2.56594   2.58123   2.59286   2.59494
 Alpha virt. eigenvalues --    2.60243   2.60569   2.61190   2.61492   2.61992
 Alpha virt. eigenvalues --    2.62051   2.62292   2.62490   2.62887   2.62957
 Alpha virt. eigenvalues --    2.63057   2.63190   2.63482   2.63767   2.64045
 Alpha virt. eigenvalues --    2.64535   2.64795   2.65047   2.65520   2.65723
 Alpha virt. eigenvalues --    2.65770   2.66003   2.67505   2.68434   2.68857
 Alpha virt. eigenvalues --    2.69821   2.70894   2.72004   2.72613   2.73150
 Alpha virt. eigenvalues --    2.74496   2.74936   2.75779   2.76738   2.77005
 Alpha virt. eigenvalues --    2.77582   2.77946   2.80867   2.81615   2.84381
 Alpha virt. eigenvalues --    2.86205   2.95383   3.40455   3.40654   3.41306
 Alpha virt. eigenvalues --    3.41523   3.42162   3.43299   3.43782   3.45115
 Alpha virt. eigenvalues --    3.46096   3.46535   3.47236   3.47737   3.50245
 Alpha virt. eigenvalues --    3.50435   3.51334   3.54309   3.54522   3.55769
 Alpha virt. eigenvalues --    4.70794   6.18246   6.57148   7.79700
          Condensed to atoms (all electrons):
 Mulliken charges:
               1
     1  Si   1.284598
     2  O   -0.636877
     3  O   -0.653399
     4  O   -0.652903
     5  O   -0.760424
     6  Zr   1.627152
     7  Si   1.110845
     8  Si   1.159581
     9  Si   1.139280
    10  O   -0.821292
    11  Zr   1.490847
    12  O   -0.855424
    13  Zr   1.595222
    14  O   -0.829063
    15  Zr   1.554336
    16  O   -0.625765
    17  O   -0.575305
    18  O   -0.657126
    19  O   -0.621139
    20  O   -0.611894
    21  O   -0.641255
    22  O   -0.577467
    23  O   -0.654801
    24  O   -0.615886
    25  H    0.354994
    26  H    0.333556
    27  H    0.363907
    28  H    0.366237
    29  H    0.362801
    30  H    0.337355
    31  H    0.335875
    32  H    0.377350
    33  H    0.344286
    34  O   -0.694960
    35  H    0.332311
    36  O   -0.707302
    37  H    0.364749
    38  O   -0.749387
    39  H    0.331178
    40  O   -0.764334
    41  H    0.371978
    42  O   -0.694901
    43  H    0.334378
    44  O   -0.698949
    45  H    0.335298
    46  O   -0.763001
    47  H    0.380374
    48  O   -0.741833
    49  H    0.339955
    50  O   -0.692151
    51  H    0.368392
 Sum of Mulliken charges =  -0.00000
 Mulliken charges with hydrogens summed into heavy atoms:
               1
     1  Si   1.284598
     2  O   -0.636877
     3  O   -0.653399
     4  O   -0.652903
     5  O   -0.760424
     6  Zr   1.627152
     7  Si   1.110845
     8  Si   1.159581
     9  Si   1.139280
    10  O   -0.821292
    11  Zr   1.490847
    12  O   -0.855424
    13  Zr   1.595222
    14  O   -0.829063
    15  Zr   1.554336
    16  O   -0.288410
    17  O   -0.239430
    18  O   -0.294324
    19  O   -0.276853
    20  O   -0.245657
    21  O   -0.263904
    22  O   -0.243910
    23  O   -0.299807
    24  O   -0.251979
    34  O   -0.362649
    36  O   -0.342552
    38  O   -0.418209
    40  O   -0.392356
    42  O   -0.360523
    44  O   -0.363651
    46  O   -0.382627
    48  O   -0.401878
    50  O   -0.323759
 Electronic spatial extent (au):  <R**2>=          25588.1930
 Charge=             -0.0000 electrons
 Dipole moment (field-independent basis, Debye):
    X=              2.1984    Y=              4.5993    Z=              0.8697  Tot=              5.1713
 Quadrupole moment (field-independent basis, Debye-Ang):
   XX=           -297.6721   YY=           -257.6917   ZZ=           -261.4899
   XY=              2.6545   XZ=              8.1881   YZ=             -7.8600
 Traceless Quadrupole moment (field-independent basis, Debye-Ang):
   XX=            -25.3876   YY=             14.5928   ZZ=             10.7947
   XY=              2.6545   XZ=              8.1881   YZ=             -7.8600
 Octapole moment (field-independent basis, Debye-Ang**2):
  XXX=            342.6084  YYY=            105.6518  ZZZ=            -31.6997  XYY=            156.9788
  XXY=             53.7292  XXZ=            -21.7769  XZZ=            122.4243  YZZ=             14.0084
  YYZ=            -21.1696  XYZ=             57.5500
 Hexadecapole moment (field-independent basis, Debye-Ang**3):
 XXXX=         -23309.9898 YYYY=          -5962.0298 ZZZZ=          -4836.1889 XXXY=             95.5882
 XXXZ=           -132.7890 YYYX=             94.3761 YYYZ=             24.0814 ZZZX=            128.9774
 ZZZY=            -36.9305 XXYY=          -4749.6275 XXZZ=          -3934.2140 YYZZ=          -1742.0642
 XXYZ=           -534.2356 YYXZ=           -161.7206 ZZXY=            163.0045
 N-N= 5.635841750894D+03 E-N=-1.887240219502D+04  KE= 3.091320660239D+03
 1\1\GINC-GRA1075\FOpt\RB3LYP\Gen\H18O25Si4Zr4\SARASHS\24-Jun-2020\0\\#
 n B3LYP/GEN PSEUDO=READ Opt(modredundant)\\Title\\0,1\Si,-2.8528093725
 ,0.3551177225,-1.1571386906\O,-2.6301130901,-0.2133991452,0.3587807021
 \O,-3.6779860081,1.7843944817,-1.0538285947\O,-3.7568029878,-0.7582033
 1,-1.9527244821\O,-1.3914104809,0.5928843766,-1.8118739675\Zr,0.601578
 9742,0.5753746374,-1.8403446022\Si,-2.3964042534,-0.5143362448,1.93575
 099\Si,-5.0848635481,2.1858329665,-0.2861997495\Si,-4.908532771,-1.801
 1989418,-1.3476896099\O,1.4041243837,-0.9304870623,-2.7475893859\Zr,3.
 1305554674,-1.9699461075,-3.028530166\O,1.1545241794,0.2740050091,0.07
 48366972\Zr,2.6309337978,-0.7401362512,0.8907554855\O,1.5223474087,2.2
 369073696,-2.3816777512\Zr,3.3389799573,3.0198900258,-2.2091837363\O,-
 6.3966175759,1.8712174183,-1.2475148915\O,-5.0090592214,3.7788570886,0
 .0890065781\O,-5.3160753459,1.2602667011,1.0645638507\O,-2.9414252124,
 -2.07345011,2.1336053722\O,-3.217091702,0.5352304929,2.8828244966\O,-0
 .7736179814,-0.4570944682,2.2505114711\O,-5.6349304372,-2.5341320428,-
 2.6216271941\O,-6.0649898998,-0.9066571772,-0.5507822627\O,-4.28028319
 37,-2.8990176949,-0.3259728968\H,-6.5330779271,-0.2551556514,-1.098631
 7674\H,-5.045261445,-2.9393608326,-3.2665997649\H,-3.795610342,-2.6296
 817361,0.4743705345\H,-4.0108027868,0.9029759616,2.4462410361\H,-5.687
 5309092,0.3869877488,0.8229536674\H,-6.482983968,2.4057483061,-2.04477
 54496\H,-4.1250000513,4.1613608157,0.0923028588\H,-0.2787238783,0.0076
 711759,1.5516616512\H,-3.369775898,-2.2809872794,2.971121364\O,3.13496
 30346,-2.3762417703,-4.954366261\H,3.6361315464,-2.0265627562,-5.69765
 50991\O,4.6083978636,-0.7191851637,-2.836557874\H,4.7765176979,0.08298
 59495,-2.3023406537\O,3.3157948917,-3.8580479345,-2.3014335817\H,3.400
 0012104,-4.6451551012,-2.8506606212\O,4.4073826548,1.6089113155,-1.300
 2628151\H,4.5159955672,1.372479232,-0.3549620913\O,4.1024526603,3.3436
 73021,-3.9802700604\H,4.3412682889,4.0068421757,-4.6321595493\O,3.2334
 165973,4.6318858583,-1.1193979593\H,2.7572715655,5.2891014445,-0.60831
 00326\O,3.154126767,-2.0689278889,-0.5100617022\H,3.2646731921,-3.0362
 869542,-0.6027911186\O,4.1507677401,0.5171061439,1.242299592\H,4.59473
 31912,0.8101544317,2.0454131336\O,1.9141002459,-1.5189833976,2.5177403
 481\H,0.9899414041,-1.4608368481,2.8203445534\\Version=ES64L-G16RevB.0
 1\State=1-A\HF=-3237.565025\RMSD=7.587e-09\RMSF=8.898e-04\Dipole=0.847
 3325,1.8493431,0.0365032\Quadrupole=-15.1202685,10.1433971,4.9768713,0
 .3701372,11.3734311,-6.0551111\PG=C01 [X(H18O25Si4Zr4)]\\@


 WHERE THERE IS MUCH DESIRE TO LEARN, THERE OF NECESSITY WILL BE
 MUCH ARGUING, MUCH WRITING, MANY OPINIONS; FOR OPINION IN GOOD MEN
 IS BUT KNOWLEDGE IN THE MAKING. -- JOHN MILTON.
 Job cpu time:       1 days 18 hours 40 minutes 18.1 seconds.
 Elapsed time:       0 days  2 hours 40 minutes 51.0 seconds.
 File lengths (MBytes):  RWF=    218 Int=      0 D2E=      0 Chk=     28 Scr=      1
 Normal termination of Gaussian 16 at Wed Jun 24 16:51:22 2020.
