 Entering Gaussian System, Link 0=g16
 Initial command:
 /opt/software/gaussian/g16.b01/l1.exe "/localscratch/sarashs.33453282.0/Gau-13567.inp" -scrdir="/localscratch/sarashs.33453282.0/"
 Entering Link 1 = /opt/software/gaussian/g16.b01/l1.exe PID=     13568.
  
 Copyright (c) 1988-2017, Gaussian, Inc.  All Rights Reserved.
  
 This is part of the Gaussian(R) 16 program.  It is based on
 the Gaussian(R) 09 system (copyright 2009, Gaussian, Inc.),
 the Gaussian(R) 03 system (copyright 2003, Gaussian, Inc.),
 the Gaussian(R) 98 system (copyright 1998, Gaussian, Inc.),
 the Gaussian(R) 94 system (copyright 1995, Gaussian, Inc.),
 the Gaussian 92(TM) system (copyright 1992, Gaussian, Inc.),
 the Gaussian 90(TM) system (copyright 1990, Gaussian, Inc.),
 the Gaussian 88(TM) system (copyright 1988, Gaussian, Inc.),
 the Gaussian 86(TM) system (copyright 1986, Carnegie Mellon
 University), and the Gaussian 82(TM) system (copyright 1983,
 Carnegie Mellon University). Gaussian is a federally registered
 trademark of Gaussian, Inc.
  
 This software contains proprietary and confidential information,
 including trade secrets, belonging to Gaussian, Inc.
  
 This software is provided under written license and may be
 used, copied, transmitted, or stored only in accord with that
 written license.
  
 The following legend is applicable only to US Government
 contracts under FAR:
  
                    RESTRICTED RIGHTS LEGEND
  
 Use, reproduction and disclosure by the US Government is
 subject to restrictions as set forth in subparagraphs (a)
 and (c) of the Commercial Computer Software - Restricted
 Rights clause in FAR 52.227-19.
  
 Gaussian, Inc.
 340 Quinnipiac St., Bldg. 40, Wallingford CT 06492
  
  
 ---------------------------------------------------------------
 Warning -- This program may not be used in any manner that
 competes with the business of Gaussian, Inc. or will provide
 assistance to any competitor of Gaussian, Inc.  The licensee
 of this program is prohibited from giving any competitor of
 Gaussian, Inc. access to this program.  By using this program,
 the user acknowledges that Gaussian, Inc. is engaged in the
 business of creating and licensing software in the field of
 computational chemistry and represents and warrants to the
 licensee that it is not a competitor of Gaussian, Inc. and that
 it will not use this program in any manner prohibited above.
 ---------------------------------------------------------------
  

 Cite this work as:
 Gaussian 16, Revision B.01,
 M. J. Frisch, G. W. Trucks, H. B. Schlegel, G. E. Scuseria, 
 M. A. Robb, J. R. Cheeseman, G. Scalmani, V. Barone, 
 G. A. Petersson, H. Nakatsuji, X. Li, M. Caricato, A. V. Marenich, 
 J. Bloino, B. G. Janesko, R. Gomperts, B. Mennucci, H. P. Hratchian, 
 J. V. Ortiz, A. F. Izmaylov, J. L. Sonnenberg, D. Williams-Young, 
 F. Ding, F. Lipparini, F. Egidi, J. Goings, B. Peng, A. Petrone, 
 T. Henderson, D. Ranasinghe, V. G. Zakrzewski, J. Gao, N. Rega, 
 G. Zheng, W. Liang, M. Hada, M. Ehara, K. Toyota, R. Fukuda, 
 J. Hasegawa, M. Ishida, T. Nakajima, Y. Honda, O. Kitao, H. Nakai, 
 T. Vreven, K. Throssell, J. A. Montgomery, Jr., J. E. Peralta, 
 F. Ogliaro, M. J. Bearpark, J. J. Heyd, E. N. Brothers, K. N. Kudin, 
 V. N. Staroverov, T. A. Keith, R. Kobayashi, J. Normand, 
 K. Raghavachari, A. P. Rendell, J. C. Burant, S. S. Iyengar, 
 J. Tomasi, M. Cossi, J. M. Millam, M. Klene, C. Adamo, R. Cammi, 
 J. W. Ochterski, R. L. Martin, K. Morokuma, O. Farkas, 
 J. B. Foresman, and D. J. Fox, Gaussian, Inc., Wallingford CT, 2016.
 
 ******************************************
 Gaussian 16:  ES64L-G16RevB.01 20-Dec-2017
                24-Jun-2020 
 ******************************************
 %NProcShared=16
 Will use up to   16 processors via shared memory.
 ------------------------------------------
 #n B3LYP/GEN PSEUDO=READ Opt(modredundant)
 ------------------------------------------
 1/18=120,19=15,26=3,38=1/1,3;
 2/9=110,12=2,17=6,18=5,40=1/2;
 3/5=7,11=2,16=1,17=8,25=1,30=1,71=1,74=-5/1,2,3;
 4//1;
 5/5=2,38=5/2;
 6/7=2,8=2,9=2,10=2,28=1/1;
 7//1,2,3,16;
 1/18=20,19=15,26=3/3(2);
 2/9=110/2;
 99//99;
 2/9=110/2;
 3/5=7,6=1,11=2,16=1,17=8,25=1,30=1,71=1,74=-5,82=7/1,2,3;
 4/5=5,16=3,69=1/1;
 5/5=2,38=5/2;
 7//1,2,3,16;
 1/18=20,19=15,26=3/3(-5);
 2/9=110/2;
 6/7=2,8=2,9=2,10=2,19=2,28=1/1;
 99/9=1/99;
 -----
 Title
 -----
 Symbolic Z-matrix:
 Charge =  0 Multiplicity = 1
 Si                   -2.76356   0.50373  -0.80236 
 O                    -2.64408  -0.06281   0.73154 
 O                    -3.71347   1.8573   -0.78988 
 O                    -3.46982  -0.65647  -1.71915 
 O                    -1.26704   0.87374  -1.30905 
 Zr                    0.72115   0.62575  -1.13512 
 Si                   -2.95182  -0.40071   2.29443 
 Si                   -5.29329   2.11319  -0.39088 
 Si                   -4.65193  -1.79724  -1.46558 
 O                     1.38472  -0.93396  -2.05885 
 Zr                    3.03325  -2.05466  -2.47035 
 O                     1.33      0.26554   0.76121 
 Zr                    2.8273   -0.80472   1.46886 
 O                     1.77911   2.18298  -1.71445 
 Zr                    3.64655   2.85907  -1.67471 
 O                    -6.30259   1.76732  -1.65717 
 O                    -5.44687   3.68028   0.05984 
 O                    -5.76721   1.08545   0.81639 
 O                    -3.50601  -1.97299   2.26095 
 O                    -4.03994   0.60192   2.98173 
 O                    -1.51274  -0.31185   3.10045 
 O                    -4.9739   -2.52135  -2.90029 
 O                    -6.04082  -1.02047  -0.97357 
 O                    -4.21989  -2.88703  -0.34024 
 H                    -6.38886  -0.36717  -1.60281 
 H                    -4.21233  -2.86813  -3.37752 
 H                    -3.92943  -2.60256   0.54609 
 H                    -4.78107   0.84544   2.39047 
 H                    -6.04405   0.21773   0.45311 
 H                    -6.24075   2.34318  -2.42744 
 H                    -4.62851   4.12226   0.31086 
 H                    -0.83615   0.10482   2.53314 
 H                    -4.05643  -2.25627   2.99954 
 O                     2.8722   -2.46261  -4.38861 
 H                     3.32617  -2.13896  -5.17282 
 O                     4.58019  -0.87808  -2.39639 
 H                     4.86259  -0.12234  -1.84275 
 O                     3.17958  -3.94589  -1.74372 
 H                     3.18833  -4.73984  -2.28944 
 O                     4.69555   1.4093   -0.80669 
 H                     4.81314   1.17512   0.13809 
 O                     4.31355   3.11805  -3.4944 
 H                     4.52386   3.7579   -4.17861 
 O                     3.69471   4.48849  -0.60764 
 H                     3.28602   5.19082  -0.09825 
 O                     3.23638  -2.14047   0.03698 
 H                     3.29782  -3.11247  -0.05521 
 O                     4.41038   0.38996   1.75448 
 H                     4.8898    0.66635   2.54312 
 O                     2.19247  -1.58209   3.12997 
 H                     1.2891   -1.49442   3.48416 
 
 The following ModRedundant input section has been read:
 A       1       5       6 F                                                   
 

 GradGradGradGradGradGradGradGradGradGradGradGradGradGradGradGradGradGrad
 Berny optimization.
 Initialization pass.
                           ----------------------------
                           !    Initial Parameters    !
                           ! (Angstroms and Degrees)  !
 --------------------------                            --------------------------
 ! Name  Definition              Value          Derivative Info.                !
 --------------------------------------------------------------------------------
 ! R1    R(1,2)                  1.6395         estimate D2E/DX2                !
 ! R2    R(1,3)                  1.6537         estimate D2E/DX2                !
 ! R3    R(1,4)                  1.6387         estimate D2E/DX2                !
 ! R4    R(1,5)                  1.6227         estimate D2E/DX2                !
 ! R5    R(2,7)                  1.6283         estimate D2E/DX2                !
 ! R6    R(3,8)                  1.6494         estimate D2E/DX2                !
 ! R7    R(4,9)                  1.6622         estimate D2E/DX2                !
 ! R8    R(5,6)                  2.0111         estimate D2E/DX2                !
 ! R9    R(6,10)                 1.9304         estimate D2E/DX2                !
 ! R10   R(6,12)                 2.024          estimate D2E/DX2                !
 ! R11   R(6,14)                 1.9697         estimate D2E/DX2                !
 ! R12   R(7,19)                 1.6674         estimate D2E/DX2                !
 ! R13   R(7,20)                 1.6315         estimate D2E/DX2                !
 ! R14   R(7,21)                 1.6518         estimate D2E/DX2                !
 ! R15   R(8,16)                 1.6558         estimate D2E/DX2                !
 ! R16   R(8,17)                 1.6378         estimate D2E/DX2                !
 ! R17   R(8,18)                 1.6548         estimate D2E/DX2                !
 ! R18   R(9,22)                 1.639          estimate D2E/DX2                !
 ! R19   R(9,23)                 1.6657         estimate D2E/DX2                !
 ! R20   R(9,24)                 1.625          estimate D2E/DX2                !
 ! R21   R(10,11)                2.0354         estimate D2E/DX2                !
 ! R22   R(11,34)                1.9678         estimate D2E/DX2                !
 ! R23   R(11,36)                1.945          estimate D2E/DX2                !
 ! R24   R(11,38)                2.0313         estimate D2E/DX2                !
 ! R25   R(12,13)                1.9718         estimate D2E/DX2                !
 ! R26   R(13,46)                2.0005         estimate D2E/DX2                !
 ! R27   R(13,48)                2.0037         estimate D2E/DX2                !
 ! R28   R(13,50)                1.9408         estimate D2E/DX2                !
 ! R29   R(14,15)                1.9865         estimate D2E/DX2                !
 ! R30   R(15,40)                1.9889         estimate D2E/DX2                !
 ! R31   R(15,42)                1.9553         estimate D2E/DX2                !
 ! R32   R(15,44)                1.9483         estimate D2E/DX2                !
 ! R33   R(16,30)                0.9637         estimate D2E/DX2                !
 ! R34   R(17,31)                0.9634         estimate D2E/DX2                !
 ! R35   R(18,29)                0.9806         estimate D2E/DX2                !
 ! R36   R(19,33)                0.9637         estimate D2E/DX2                !
 ! R37   R(20,28)                0.9789         estimate D2E/DX2                !
 ! R38   R(21,32)                0.9763         estimate D2E/DX2                !
 ! R39   R(22,26)                0.9633         estimate D2E/DX2                !
 ! R40   R(23,25)                0.9715         estimate D2E/DX2                !
 ! R41   R(24,27)                0.9751         estimate D2E/DX2                !
 ! R42   R(34,35)                0.9622         estimate D2E/DX2                !
 ! R43   R(36,37)                0.9785         estimate D2E/DX2                !
 ! R44   R(38,39)                0.9635         estimate D2E/DX2                !
 ! R45   R(40,41)                0.9804         estimate D2E/DX2                !
 ! R46   R(42,43)                0.9601         estimate D2E/DX2                !
 ! R47   R(44,45)                0.959          estimate D2E/DX2                !
 ! R48   R(46,47)                0.9783         estimate D2E/DX2                !
 ! R49   R(48,49)                0.9634         estimate D2E/DX2                !
 ! R50   R(50,51)                0.9743         estimate D2E/DX2                !
 ! A1    A(2,1,3)              108.5202         estimate D2E/DX2                !
 ! A2    A(2,1,4)              108.0696         estimate D2E/DX2                !
 ! A3    A(2,1,5)              107.6808         estimate D2E/DX2                !
 ! A4    A(3,1,4)              109.6434         estimate D2E/DX2                !
 ! A5    A(3,1,5)              110.2104         estimate D2E/DX2                !
 ! A6    A(4,1,5)              112.595          estimate D2E/DX2                !
 ! A7    A(1,2,7)              162.9195         estimate D2E/DX2                !
 ! A8    A(1,3,8)              132.766          estimate D2E/DX2                !
 ! A9    A(1,4,9)              134.9946         estimate D2E/DX2                !
 ! A10   A(1,5,6)              148.9358         Frozen                          !
 ! A11   A(5,6,10)             113.4582         estimate D2E/DX2                !
 ! A12   A(5,6,12)             113.6007         estimate D2E/DX2                !
 ! A13   A(5,6,14)             114.083          estimate D2E/DX2                !
 ! A14   A(10,6,12)            101.6036         estimate D2E/DX2                !
 ! A15   A(10,6,14)            108.2644         estimate D2E/DX2                !
 ! A16   A(12,6,14)            104.7554         estimate D2E/DX2                !
 ! A17   A(2,7,19)             103.84           estimate D2E/DX2                !
 ! A18   A(2,7,20)             113.7575         estimate D2E/DX2                !
 ! A19   A(2,7,21)             107.0096         estimate D2E/DX2                !
 ! A20   A(19,7,20)            111.4863         estimate D2E/DX2                !
 ! A21   A(19,7,21)            110.4922         estimate D2E/DX2                !
 ! A22   A(20,7,21)            110.0253         estimate D2E/DX2                !
 ! A23   A(3,8,16)             111.4953         estimate D2E/DX2                !
 ! A24   A(3,8,17)             107.7477         estimate D2E/DX2                !
 ! A25   A(3,8,18)             110.7593         estimate D2E/DX2                !
 ! A26   A(16,8,17)            110.6802         estimate D2E/DX2                !
 ! A27   A(16,8,18)            104.6923         estimate D2E/DX2                !
 ! A28   A(17,8,18)            111.5071         estimate D2E/DX2                !
 ! A29   A(4,9,22)             108.021          estimate D2E/DX2                !
 ! A30   A(4,9,23)             108.5421         estimate D2E/DX2                !
 ! A31   A(4,9,24)             112.1363         estimate D2E/DX2                !
 ! A32   A(22,9,23)            107.505          estimate D2E/DX2                !
 ! A33   A(22,9,24)            111.2311         estimate D2E/DX2                !
 ! A34   A(23,9,24)            109.2613         estimate D2E/DX2                !
 ! A35   A(6,10,11)            145.0881         estimate D2E/DX2                !
 ! A36   A(10,11,34)           104.1785         estimate D2E/DX2                !
 ! A37   A(10,11,36)           107.6627         estimate D2E/DX2                !
 ! A38   A(10,11,38)           119.9112         estimate D2E/DX2                !
 ! A39   A(34,11,36)           103.1547         estimate D2E/DX2                !
 ! A40   A(34,11,38)            99.2994         estimate D2E/DX2                !
 ! A41   A(36,11,38)           119.4938         estimate D2E/DX2                !
 ! A42   A(6,12,13)            131.3965         estimate D2E/DX2                !
 ! A43   A(12,13,46)           105.119          estimate D2E/DX2                !
 ! A44   A(12,13,48)           109.1152         estimate D2E/DX2                !
 ! A45   A(12,13,50)           106.0329         estimate D2E/DX2                !
 ! A46   A(46,13,48)           109.7903         estimate D2E/DX2                !
 ! A47   A(46,13,50)           114.3349         estimate D2E/DX2                !
 ! A48   A(48,13,50)           112.0393         estimate D2E/DX2                !
 ! A49   A(6,14,15)            140.185          estimate D2E/DX2                !
 ! A50   A(14,15,40)           104.8606         estimate D2E/DX2                !
 ! A51   A(14,15,42)           110.3128         estimate D2E/DX2                !
 ! A52   A(14,15,44)           108.5925         estimate D2E/DX2                !
 ! A53   A(40,15,42)           108.8319         estimate D2E/DX2                !
 ! A54   A(40,15,44)           110.9501         estimate D2E/DX2                !
 ! A55   A(42,15,44)           112.9854         estimate D2E/DX2                !
 ! A56   A(8,16,30)            116.5711         estimate D2E/DX2                !
 ! A57   A(8,17,31)            115.5324         estimate D2E/DX2                !
 ! A58   A(8,18,29)            111.1097         estimate D2E/DX2                !
 ! A59   A(7,19,33)            116.8474         estimate D2E/DX2                !
 ! A60   A(7,20,28)            113.7913         estimate D2E/DX2                !
 ! A61   A(7,21,32)            110.0697         estimate D2E/DX2                !
 ! A62   A(9,22,26)            115.9371         estimate D2E/DX2                !
 ! A63   A(9,23,25)            114.8968         estimate D2E/DX2                !
 ! A64   A(9,24,27)            120.8639         estimate D2E/DX2                !
 ! A65   A(11,34,35)           133.3276         estimate D2E/DX2                !
 ! A66   A(11,36,37)           135.9146         estimate D2E/DX2                !
 ! A67   A(11,38,39)           124.4217         estimate D2E/DX2                !
 ! A68   A(15,40,41)           131.1414         estimate D2E/DX2                !
 ! A69   A(15,42,43)           145.7117         estimate D2E/DX2                !
 ! A70   A(15,44,45)           153.2295         estimate D2E/DX2                !
 ! A71   A(13,46,47)           138.0492         estimate D2E/DX2                !
 ! A72   A(13,48,49)           132.9125         estimate D2E/DX2                !
 ! A73   A(13,50,51)           125.3387         estimate D2E/DX2                !
 ! D1    D(3,1,2,7)             26.3443         estimate D2E/DX2                !
 ! D2    D(4,1,2,7)            -92.4856         estimate D2E/DX2                !
 ! D3    D(5,1,2,7)            145.6313         estimate D2E/DX2                !
 ! D4    D(2,1,3,8)            -62.7632         estimate D2E/DX2                !
 ! D5    D(4,1,3,8)             55.0697         estimate D2E/DX2                !
 ! D6    D(5,1,3,8)            179.5501         estimate D2E/DX2                !
 ! D7    D(2,1,4,9)             35.4977         estimate D2E/DX2                !
 ! D8    D(3,1,4,9)            -82.6158         estimate D2E/DX2                !
 ! D9    D(5,1,4,9)            154.3011         estimate D2E/DX2                !
 ! D10   D(2,1,5,6)             22.0329         estimate D2E/DX2                !
 ! D11   D(3,1,5,6)            140.2369         estimate D2E/DX2                !
 ! D12   D(4,1,5,6)            -96.9975         estimate D2E/DX2                !
 ! D13   D(1,2,7,19)           100.9483         estimate D2E/DX2                !
 ! D14   D(1,2,7,20)           -20.4241         estimate D2E/DX2                !
 ! D15   D(1,2,7,21)          -142.1534         estimate D2E/DX2                !
 ! D16   D(1,3,8,16)           -83.6614         estimate D2E/DX2                !
 ! D17   D(1,3,8,17)           154.7            estimate D2E/DX2                !
 ! D18   D(1,3,8,18)            32.4929         estimate D2E/DX2                !
 ! D19   D(1,4,9,22)           173.7129         estimate D2E/DX2                !
 ! D20   D(1,4,9,23)            57.4339         estimate D2E/DX2                !
 ! D21   D(1,4,9,24)           -63.3679         estimate D2E/DX2                !
 ! D22   D(1,5,6,10)            82.8657         estimate D2E/DX2                !
 ! D23   D(1,5,6,12)           -32.53           estimate D2E/DX2                !
 ! D24   D(1,5,6,14)          -152.5116         estimate D2E/DX2                !
 ! D25   D(5,6,10,11)         -177.8675         estimate D2E/DX2                !
 ! D26   D(12,6,10,11)         -55.5479         estimate D2E/DX2                !
 ! D27   D(14,6,10,11)          54.4245         estimate D2E/DX2                !
 ! D28   D(5,6,12,13)          148.1495         estimate D2E/DX2                !
 ! D29   D(10,6,12,13)          25.9281         estimate D2E/DX2                !
 ! D30   D(14,6,12,13)         -86.7115         estimate D2E/DX2                !
 ! D31   D(5,6,14,15)          169.9962         estimate D2E/DX2                !
 ! D32   D(10,6,14,15)         -62.6541         estimate D2E/DX2                !
 ! D33   D(12,6,14,15)          45.1617         estimate D2E/DX2                !
 ! D34   D(2,7,19,33)         -156.8425         estimate D2E/DX2                !
 ! D35   D(20,7,19,33)         -33.9627         estimate D2E/DX2                !
 ! D36   D(21,7,19,33)          88.7198         estimate D2E/DX2                !
 ! D37   D(2,7,20,28)           39.0047         estimate D2E/DX2                !
 ! D38   D(19,7,20,28)         -78.0052         estimate D2E/DX2                !
 ! D39   D(21,7,20,28)         159.0451         estimate D2E/DX2                !
 ! D40   D(2,7,21,32)           12.2859         estimate D2E/DX2                !
 ! D41   D(19,7,21,32)         124.7052         estimate D2E/DX2                !
 ! D42   D(20,7,21,32)        -111.7631         estimate D2E/DX2                !
 ! D43   D(3,8,16,30)          -66.936          estimate D2E/DX2                !
 ! D44   D(17,8,16,30)          52.9866         estimate D2E/DX2                !
 ! D45   D(18,8,16,30)         173.2574         estimate D2E/DX2                !
 ! D46   D(3,8,17,31)          -19.3558         estimate D2E/DX2                !
 ! D47   D(16,8,17,31)        -141.4996         estimate D2E/DX2                !
 ! D48   D(18,8,17,31)         102.3883         estimate D2E/DX2                !
 ! D49   D(3,8,18,29)          -84.4645         estimate D2E/DX2                !
 ! D50   D(16,8,18,29)          35.8337         estimate D2E/DX2                !
 ! D51   D(17,8,18,29)         155.5519         estimate D2E/DX2                !
 ! D52   D(4,9,22,26)           52.0376         estimate D2E/DX2                !
 ! D53   D(23,9,22,26)         168.99           estimate D2E/DX2                !
 ! D54   D(24,9,22,26)         -71.4318         estimate D2E/DX2                !
 ! D55   D(4,9,23,25)           59.2735         estimate D2E/DX2                !
 ! D56   D(22,9,23,25)         -57.3378         estimate D2E/DX2                !
 ! D57   D(24,9,23,25)        -178.1643         estimate D2E/DX2                !
 ! D58   D(4,9,24,27)           54.0597         estimate D2E/DX2                !
 ! D59   D(22,9,24,27)         175.1468         estimate D2E/DX2                !
 ! D60   D(23,9,24,27)         -66.3256         estimate D2E/DX2                !
 ! D61   D(6,10,11,34)        -136.8771         estimate D2E/DX2                !
 ! D62   D(6,10,11,36)         -27.803          estimate D2E/DX2                !
 ! D63   D(6,10,11,38)         113.3908         estimate D2E/DX2                !
 ! D64   D(10,11,34,35)        105.934          estimate D2E/DX2                !
 ! D65   D(36,11,34,35)         -6.426          estimate D2E/DX2                !
 ! D66   D(38,11,34,35)       -129.8341         estimate D2E/DX2                !
 ! D67   D(10,11,36,37)         37.7965         estimate D2E/DX2                !
 ! D68   D(34,11,36,37)        147.5765         estimate D2E/DX2                !
 ! D69   D(38,11,36,37)       -103.5881         estimate D2E/DX2                !
 ! D70   D(10,11,38,39)        114.2538         estimate D2E/DX2                !
 ! D71   D(34,11,38,39)          1.8861         estimate D2E/DX2                !
 ! D72   D(36,11,38,39)       -109.0646         estimate D2E/DX2                !
 ! D73   D(6,12,13,46)         -23.77           estimate D2E/DX2                !
 ! D74   D(6,12,13,48)          93.9287         estimate D2E/DX2                !
 ! D75   D(6,12,13,50)        -145.2202         estimate D2E/DX2                !
 ! D76   D(12,13,46,47)       -123.8176         estimate D2E/DX2                !
 ! D77   D(48,13,46,47)        118.9423         estimate D2E/DX2                !
 ! D78   D(50,13,46,47)         -7.9575         estimate D2E/DX2                !
 ! D79   D(12,13,48,49)        115.0456         estimate D2E/DX2                !
 ! D80   D(46,13,48,49)       -130.2408         estimate D2E/DX2                !
 ! D81   D(50,13,48,49)         -2.0614         estimate D2E/DX2                !
 ! D82   D(12,13,50,51)          3.8983         estimate D2E/DX2                !
 ! D83   D(46,13,50,51)       -111.43           estimate D2E/DX2                !
 ! D84   D(48,13,50,51)        122.8398         estimate D2E/DX2                !
 ! D85   D(6,14,15,40)           2.4018         estimate D2E/DX2                !
 ! D86   D(6,14,15,42)         119.4236         estimate D2E/DX2                !
 ! D87   D(6,14,15,44)        -116.2546         estimate D2E/DX2                !
 ! D88   D(14,15,40,41)        -80.6705         estimate D2E/DX2                !
 ! D89   D(42,15,40,41)        161.2973         estimate D2E/DX2                !
 ! D90   D(44,15,40,41)         36.3821         estimate D2E/DX2                !
 ! D91   D(14,15,42,43)        104.4324         estimate D2E/DX2                !
 ! D92   D(40,15,42,43)       -141.0365         estimate D2E/DX2                !
 ! D93   D(44,15,42,43)        -17.3243         estimate D2E/DX2                !
 ! D94   D(14,15,44,45)         -4.8202         estimate D2E/DX2                !
 ! D95   D(40,15,44,45)       -119.5624         estimate D2E/DX2                !
 ! D96   D(42,15,44,45)        117.9            estimate D2E/DX2                !
 --------------------------------------------------------------------------------
 Trust Radius=3.00D-01 FncErr=1.00D-07 GrdErr=1.00D-06 EigMax=2.50D+02 EigMin=1.00D-04
 Number of steps in this run=    229 maximum allowed number of steps=    306.
 GradGradGradGradGradGradGradGradGradGradGradGradGradGradGradGradGradGrad

 Stoichiometry    H18O25Si4Zr4
 Framework group  C1[X(H18O25Si4Zr4)]
 Deg. of freedom   147
 Full point group                 C1      NOp   1
 Largest Abelian subgroup         C1      NOp   1
 Largest concise Abelian subgroup C1      NOp   1
                         Standard orientation:                         
 ---------------------------------------------------------------------
 Center     Atomic      Atomic             Coordinates (Angstroms)
 Number     Number       Type             X           Y           Z
 ---------------------------------------------------------------------
      1         14           0       -2.840371    0.500210   -0.582527
      2          8           0       -2.936938   -0.147654    0.920484
      3          8           0       -3.764765    1.870758   -0.624137
      4          8           0       -3.432003   -0.595835   -1.647435
      5          8           0       -1.284225    0.864862   -0.862974
      6         40           0        0.658680    0.566885   -0.437556
      7         14           0       -3.457576   -0.559861    2.407268
      8         14           0       -5.380380    2.138353   -0.427433
      9         14           0       -4.652933   -1.723419   -1.617107
     10          8           0        1.419697   -0.956162   -1.347215
     11         40           0        3.093316   -2.087990   -1.594030
     12          8           0        1.000790    0.096015    1.500938
     13         40           0        2.374063   -1.040478    2.343930
     14          8           0        1.806285    2.129789   -0.784256
     15         40           0        3.660253    2.763928   -0.457635
     16          8           0       -6.213953    1.879828   -1.834602
     17          8           0       -5.572124    3.682751    0.083032
     18          8           0       -6.026992    1.059327    0.647716
     19          8           0       -4.023488   -2.116413    2.214394
     20          8           0       -4.614842    0.428095    2.995766
     21          8           0       -2.139513   -0.542954    3.402728
     22          8           0       -4.787931   -2.365127   -3.119232
     23          8           0       -6.084871   -0.944565   -1.274467
     24          8           0       -4.391751   -2.878975   -0.504828
     25          1           0       -6.335791   -0.252347   -1.908304
     26          1           0       -3.973654   -2.702392   -3.508076
     27          1           0       -4.219861   -2.647059    0.426590
     28          1           0       -5.265915    0.717374    2.324509
     29          1           0       -6.263986    0.217606    0.203993
     30          1           0       -6.040789    2.493535   -2.557189
     31          1           0       -4.789248    4.093976    0.465222
     32          1           0       -1.386878   -0.111517    2.954809
     33          1           0       -4.672448   -2.426195    2.855962
     34          8           0        3.187376   -2.392246   -3.535850
     35          1           0        3.747492   -2.037780   -4.233308
     36          8           0        4.631934   -0.949261   -1.249378
     37          1           0        4.847195   -0.229354   -0.622635
     38          8           0        3.114404   -4.017065   -0.958121
     39          1           0        3.186007   -4.781586   -1.540035
     40          8           0        4.562551    1.249505    0.463274
     41          1           0        4.548224    0.964140    1.401164
     42          8           0        4.570445    3.103218   -2.154593
     43          1           0        4.879947    3.773255   -2.768628
     44          8           0        3.585956    4.334328    0.693143
     45          1           0        3.121780    5.017577    1.180467
     46          8           0        2.954646   -2.308213    0.909487
     47          1           0        3.014756   -3.275174    0.773729
     48          8           0        3.920137    0.104570    2.903846
     49          1           0        4.292325    0.329567    3.763520
     50          8           0        1.510120   -1.889770    3.860144
     51          1           0        0.568456   -1.801866    4.094145
 ---------------------------------------------------------------------
 Rotational constants (GHZ):           0.0850107           0.0365349           0.0348228
 General basis read from cards:  (5D, 7F)
 ======================================================================================================
                                       Pseudopotential Parameters
 ======================================================================================================
  Center     Atomic      Valence      Angular      Power
  Number     Number     Electrons     Momentum     of R      Exponent        Coefficient   SO-Coeffient
 ======================================================================================================
    1         14
                                   No pseudopotential on this center.
    2          8
                                   No pseudopotential on this center.
    3          8
                                   No pseudopotential on this center.
    4          8
                                   No pseudopotential on this center.
    5          8
                                   No pseudopotential on this center.
    6         40           12
                                      F and up 
                                                     0      645.9321873       -0.04258430    0.00000000
                                                     1      134.7547401      -20.22224090    0.00000000
                                                     2       42.3074619     -101.86951720    0.00000000
                                                     2       12.0003227      -41.61957840    0.00000000
                                                     2        4.1260454       -4.69861600    0.00000000
                                      S - F
                                                     0      117.6251862        2.79105590    0.00000000
                                                     1       22.9646089       41.94894590    0.00000000
                                                     2        4.5225298       67.72718660    0.00000000
                                      P - F
                                                     0       47.1953145        4.99111440    0.00000000
                                                     1       48.0356033       20.71931720    0.00000000
                                                     2       19.4541456      195.58677580    0.00000000
                                                     2        4.0512875       48.28771760    0.00000000
                                      D - F
                                                     0       79.9073983        3.00492260    0.00000000
                                                     1       45.8263798       25.93779890    0.00000000
                                                     2       26.9903522      125.12449340    0.00000000
                                                     2        9.6835718       70.76340220    0.00000000
                                                     2        2.7995666       15.04928220    0.00000000
    7         14
                                   No pseudopotential on this center.
    8         14
                                   No pseudopotential on this center.
    9         14
                                   No pseudopotential on this center.
   10          8
                                   No pseudopotential on this center.
   11         40           12
                                      F and up 
                                                     0      645.9321873       -0.04258430    0.00000000
                                                     1      134.7547401      -20.22224090    0.00000000
                                                     2       42.3074619     -101.86951720    0.00000000
                                                     2       12.0003227      -41.61957840    0.00000000
                                                     2        4.1260454       -4.69861600    0.00000000
                                      S - F
                                                     0      117.6251862        2.79105590    0.00000000
                                                     1       22.9646089       41.94894590    0.00000000
                                                     2        4.5225298       67.72718660    0.00000000
                                      P - F
                                                     0       47.1953145        4.99111440    0.00000000
                                                     1       48.0356033       20.71931720    0.00000000
                                                     2       19.4541456      195.58677580    0.00000000
                                                     2        4.0512875       48.28771760    0.00000000
                                      D - F
                                                     0       79.9073983        3.00492260    0.00000000
                                                     1       45.8263798       25.93779890    0.00000000
                                                     2       26.9903522      125.12449340    0.00000000
                                                     2        9.6835718       70.76340220    0.00000000
                                                     2        2.7995666       15.04928220    0.00000000
   12          8
                                   No pseudopotential on this center.
   13         40           12
                                      F and up 
                                                     0      645.9321873       -0.04258430    0.00000000
                                                     1      134.7547401      -20.22224090    0.00000000
                                                     2       42.3074619     -101.86951720    0.00000000
                                                     2       12.0003227      -41.61957840    0.00000000
                                                     2        4.1260454       -4.69861600    0.00000000
                                      S - F
                                                     0      117.6251862        2.79105590    0.00000000
                                                     1       22.9646089       41.94894590    0.00000000
                                                     2        4.5225298       67.72718660    0.00000000
                                      P - F
                                                     0       47.1953145        4.99111440    0.00000000
                                                     1       48.0356033       20.71931720    0.00000000
                                                     2       19.4541456      195.58677580    0.00000000
                                                     2        4.0512875       48.28771760    0.00000000
                                      D - F
                                                     0       79.9073983        3.00492260    0.00000000
                                                     1       45.8263798       25.93779890    0.00000000
                                                     2       26.9903522      125.12449340    0.00000000
                                                     2        9.6835718       70.76340220    0.00000000
                                                     2        2.7995666       15.04928220    0.00000000
   14          8
                                   No pseudopotential on this center.
   15         40           12
                                      F and up 
                                                     0      645.9321873       -0.04258430    0.00000000
                                                     1      134.7547401      -20.22224090    0.00000000
                                                     2       42.3074619     -101.86951720    0.00000000
                                                     2       12.0003227      -41.61957840    0.00000000
                                                     2        4.1260454       -4.69861600    0.00000000
                                      S - F
                                                     0      117.6251862        2.79105590    0.00000000
                                                     1       22.9646089       41.94894590    0.00000000
                                                     2        4.5225298       67.72718660    0.00000000
                                      P - F
                                                     0       47.1953145        4.99111440    0.00000000
                                                     1       48.0356033       20.71931720    0.00000000
                                                     2       19.4541456      195.58677580    0.00000000
                                                     2        4.0512875       48.28771760    0.00000000
                                      D - F
                                                     0       79.9073983        3.00492260    0.00000000
                                                     1       45.8263798       25.93779890    0.00000000
                                                     2       26.9903522      125.12449340    0.00000000
                                                     2        9.6835718       70.76340220    0.00000000
                                                     2        2.7995666       15.04928220    0.00000000
   16          8
                                   No pseudopotential on this center.
   17          8
                                   No pseudopotential on this center.
   18          8
                                   No pseudopotential on this center.
   19          8
                                   No pseudopotential on this center.
   20          8
                                   No pseudopotential on this center.
   21          8
                                   No pseudopotential on this center.
   22          8
                                   No pseudopotential on this center.
   23          8
                                   No pseudopotential on this center.
   24          8
                                   No pseudopotential on this center.
   25          1
                                   No pseudopotential on this center.
   26          1
                                   No pseudopotential on this center.
   27          1
                                   No pseudopotential on this center.
   28          1
                                   No pseudopotential on this center.
   29          1
                                   No pseudopotential on this center.
   30          1
                                   No pseudopotential on this center.
   31          1
                                   No pseudopotential on this center.
   32          1
                                   No pseudopotential on this center.
   33          1
                                   No pseudopotential on this center.
   34          8
                                   No pseudopotential on this center.
   35          1
                                   No pseudopotential on this center.
   36          8
                                   No pseudopotential on this center.
   37          1
                                   No pseudopotential on this center.
   38          8
                                   No pseudopotential on this center.
   39          1
                                   No pseudopotential on this center.
   40          8
                                   No pseudopotential on this center.
   41          1
                                   No pseudopotential on this center.
   42          8
                                   No pseudopotential on this center.
   43          1
                                   No pseudopotential on this center.
   44          8
                                   No pseudopotential on this center.
   45          1
                                   No pseudopotential on this center.
   46          8
                                   No pseudopotential on this center.
   47          1
                                   No pseudopotential on this center.
   48          8
                                   No pseudopotential on this center.
   49          1
                                   No pseudopotential on this center.
   50          8
                                   No pseudopotential on this center.
   51          1
                                   No pseudopotential on this center.
 ======================================================================================================
 There are   637 symmetry adapted cartesian basis functions of A   symmetry.
 There are   600 symmetry adapted basis functions of A   symmetry.
   600 basis functions,  1230 primitive gaussians,   637 cartesian basis functions
   161 alpha electrons      161 beta electrons
       nuclear repulsion energy      5581.8160318905 Hartrees.
 NAtoms=   51 NActive=   51 NUniq=   51 SFac= 1.00D+00 NAtFMM=   60 NAOKFM=F Big=F
 Integral buffers will be    131072 words long.
 Raffenetti 2 integral format.
 Two-electron integral symmetry is turned on.
 One-electron integrals computed using PRISM.
   1 Symmetry operations used in ECPInt.
 ECPInt:  NShTT=   21321 NPrTT=  126439 LenC2=   15146 LenP2D=   50669.
 LDataN:  DoStor=T MaxTD1= 5 Len=  102
 Number of processors reduced to  12 by ecpmxn.
 NBasis=   600 RedAO= T EigKep=  2.64D-03  NBF=   600
 NBsUse=   600 1.00D-06 EigRej= -1.00D+00 NBFU=   600
 Defaulting to unpruned grid for atomic number  40.
 Defaulting to unpruned grid for atomic number  40.
 Defaulting to unpruned grid for atomic number  40.
 ExpMin= 2.43D-02 ExpMax= 1.61D+04 ExpMxC= 2.43D+03 IAcc=3 IRadAn=         5 AccDes= 0.00D+00
 Harris functional with IExCor=  402 and IRadAn=       5 diagonalized for initial guess.
 HarFok:  IExCor=  402 AccDes= 0.00D+00 IRadAn=         5 IDoV= 1 UseB2=F ITyADJ=14
 ICtDFT=  3500011 ScaDFX=  1.000000  1.000000  1.000000  1.000000
 Defaulting to unpruned grid for atomic number  40.
 FoFCou: FMM=F IPFlag=           0 FMFlag=      100000 FMFlg1=           0
         NFxFlg=           0 DoJE=T BraDBF=F KetDBF=T FulRan=T
         wScrn=  0.000000 ICntrl=       500 IOpCl=  0 I1Cent=   200000004 NGrid=           0
         NMat0=    1 NMatS0=      1 NMatT0=    0 NMatD0=    1 NMtDS0=    0 NMtDT0=    0
 Petite list used in FoFCou.
 Requested convergence on RMS density matrix=1.00D-08 within 128 cycles.
 Requested convergence on MAX density matrix=1.00D-06.
 Requested convergence on             energy=1.00D-06.
 No special actions if energy rises.
 Defaulting to unpruned grid for atomic number  40.
 Defaulting to unpruned grid for atomic number  40.
 Defaulting to unpruned grid for atomic number  40.
 Defaulting to unpruned grid for atomic number  40.
 Defaulting to unpruned grid for atomic number  40.
 Defaulting to unpruned grid for atomic number  40.
 Defaulting to unpruned grid for atomic number  40.
 Defaulting to unpruned grid for atomic number  40.
 Defaulting to unpruned grid for atomic number  40.
 Defaulting to unpruned grid for atomic number  40.
 Defaulting to unpruned grid for atomic number  40.
 Defaulting to unpruned grid for atomic number  40.
 Defaulting to unpruned grid for atomic number  40.
 Defaulting to unpruned grid for atomic number  40.
 Defaulting to unpruned grid for atomic number  40.
 Defaulting to unpruned grid for atomic number  40.
 SCF Done:  E(RB3LYP) =  -3237.55902135     A.U. after   17 cycles
            NFock= 17  Conv=0.32D-08     -V/T= 2.0473

 **********************************************************************

            Population analysis using the SCF Density.

 **********************************************************************

 Orbital symmetries:
       Occupied  (A) (A) (A) (A) (A) (A) (A) (A) (A) (A) (A) (A)
                 (A) (A) (A) (A) (A) (A) (A) (A) (A) (A) (A) (A)
                 (A) (A) (A) (A) (A) (A) (A) (A) (A) (A) (A) (A)
                 (A) (A) (A) (A) (A) (A) (A) (A) (A) (A) (A) (A)
                 (A) (A) (A) (A) (A) (A) (A) (A) (A) (A) (A) (A)
                 (A) (A) (A) (A) (A) (A) (A) (A) (A) (A) (A) (A)
                 (A) (A) (A) (A) (A) (A) (A) (A) (A) (A) (A) (A)
                 (A) (A) (A) (A) (A) (A) (A) (A) (A) (A) (A) (A)
                 (A) (A) (A) (A) (A) (A) (A) (A) (A) (A) (A) (A)
                 (A) (A) (A) (A) (A) (A) (A) (A) (A) (A) (A) (A)
                 (A) (A) (A) (A) (A) (A) (A) (A) (A) (A) (A) (A)
                 (A) (A) (A) (A) (A) (A) (A) (A) (A) (A) (A) (A)
                 (A) (A) (A) (A) (A) (A) (A) (A) (A) (A) (A) (A)
                 (A) (A) (A) (A) (A)
       Virtual   (A) (A) (A) (A) (A) (A) (A) (A) (A) (A) (A) (A)
                 (A) (A) (A) (A) (A) (A) (A) (A) (A) (A) (A) (A)
                 (A) (A) (A) (A) (A) (A) (A) (A) (A) (A) (A) (A)
                 (A) (A) (A) (A) (A) (A) (A) (A) (A) (A) (A) (A)
                 (A) (A) (A) (A) (A) (A) (A) (A) (A) (A) (A) (A)
                 (A) (A) (A) (A) (A) (A) (A) (A) (A) (A) (A) (A)
                 (A) (A) (A) (A) (A) (A) (A) (A) (A) (A) (A) (A)
                 (A) (A) (A) (A) (A) (A) (A) (A) (A) (A) (A) (A)
                 (A) (A) (A) (A) (A) (A) (A) (A) (A) (A) (A) (A)
                 (A) (A) (A) (A) (A) (A) (A) (A) (A) (A) (A) (A)
                 (A) (A) (A) (A) (A) (A) (A) (A) (A) (A) (A) (A)
                 (A) (A) (A) (A) (A) (A) (A) (A) (A) (A) (A) (A)
                 (A) (A) (A) (A) (A) (A) (A) (A) (A) (A) (A) (A)
                 (A) (A) (A) (A) (A) (A) (A) (A) (A) (A) (A) (A)
                 (A) (A) (A) (A) (A) (A) (A) (A) (A) (A) (A) (A)
                 (A) (A) (A) (A) (A) (A) (A) (A) (A) (A) (A) (A)
                 (A) (A) (A) (A) (A) (A) (A) (A) (A) (A) (A) (A)
                 (A) (A) (A) (A) (A) (A) (A) (A) (A) (A) (A) (A)
                 (A) (A) (A) (A) (A) (A) (A) (A) (A) (A) (A) (A)
                 (A) (A) (A) (A) (A) (A) (A) (A) (A) (A) (A) (A)
                 (A) (A) (A) (A) (A) (A) (A) (A) (A) (A) (A) (A)
                 (A) (A) (A) (A) (A) (A) (A) (A) (A) (A) (A) (A)
                 (A) (A) (A) (A) (A) (A) (A) (A) (A) (A) (A) (A)
                 (A) (A) (A) (A) (A) (A) (A) (A) (A) (A) (A) (A)
                 (A) (A) (A) (A) (A) (A) (A) (A) (A) (A) (A) (A)
                 (A) (A) (A) (A) (A) (A) (A) (A) (A) (A) (A) (A)
                 (A) (A) (A) (A) (A) (A) (A) (A) (A) (A) (A) (A)
                 (A) (A) (A) (A) (A) (A) (A) (A) (A) (A) (A) (A)
                 (A) (A) (A) (A) (A) (A) (A) (A) (A) (A) (A) (A)
                 (A) (A) (A) (A) (A) (A) (A) (A) (A) (A) (A) (A)
                 (A) (A) (A) (A) (A) (A) (A) (A) (A) (A) (A) (A)
                 (A) (A) (A) (A) (A) (A) (A) (A) (A) (A) (A) (A)
                 (A) (A) (A) (A) (A) (A) (A) (A) (A) (A) (A) (A)
                 (A) (A) (A) (A) (A) (A) (A) (A) (A) (A) (A) (A)
                 (A) (A) (A) (A) (A) (A) (A) (A) (A) (A) (A) (A)
                 (A) (A) (A) (A) (A) (A) (A) (A) (A) (A) (A) (A)
                 (A) (A) (A) (A) (A) (A) (A)
 The electronic state is 1-A.
 Alpha  occ. eigenvalues --  -66.21886 -66.21678 -66.20840 -66.20028 -19.16960
 Alpha  occ. eigenvalues --  -19.16901 -19.16680 -19.16561 -19.16208 -19.16162
 Alpha  occ. eigenvalues --  -19.15940 -19.15558 -19.15557 -19.15340 -19.15283
 Alpha  occ. eigenvalues --  -19.15253 -19.14659 -19.14548 -19.14386 -19.14273
 Alpha  occ. eigenvalues --  -19.14197 -19.14106 -19.14081 -19.13899 -19.13339
 Alpha  occ. eigenvalues --  -19.12992 -19.12608 -19.12192 -19.11666  -5.35909
 Alpha  occ. eigenvalues --   -5.35819  -5.35047  -5.34236  -3.71871  -3.71850
 Alpha  occ. eigenvalues --   -3.71843  -3.71817  -3.71782  -3.71717  -3.71115
 Alpha  occ. eigenvalues --   -3.70960  -3.70885  -3.70230  -3.70184  -3.70112
 Alpha  occ. eigenvalues --   -2.08492  -2.06824  -2.06785  -2.05110  -1.29606
 Alpha  occ. eigenvalues --   -1.29047  -1.28746  -1.27903  -1.27688  -1.27608
 Alpha  occ. eigenvalues --   -1.27156  -1.27033  -1.26668  -1.25756  -1.25503
 Alpha  occ. eigenvalues --   -1.25155  -1.05061  -1.03916  -1.02882  -1.01672
 Alpha  occ. eigenvalues --   -1.01205  -1.00962  -1.00457  -0.99588  -0.99032
 Alpha  occ. eigenvalues --   -0.98673  -0.98468  -0.98278  -0.97708  -0.97652
 Alpha  occ. eigenvalues --   -0.97296  -0.96682  -0.95478  -0.94981  -0.94815
 Alpha  occ. eigenvalues --   -0.93940  -0.93719  -0.92120  -0.90663  -0.89448
 Alpha  occ. eigenvalues --   -0.88394  -0.61326  -0.59322  -0.58601  -0.55555
 Alpha  occ. eigenvalues --   -0.54199  -0.53196  -0.52092  -0.51862  -0.51521
 Alpha  occ. eigenvalues --   -0.51219  -0.51187  -0.50806  -0.50588  -0.50195
 Alpha  occ. eigenvalues --   -0.50116  -0.49388  -0.48876  -0.47801  -0.46799
 Alpha  occ. eigenvalues --   -0.45650  -0.45552  -0.44872  -0.42631  -0.41697
 Alpha  occ. eigenvalues --   -0.41159  -0.40851  -0.40233  -0.40068  -0.39820
 Alpha  occ. eigenvalues --   -0.39573  -0.39187  -0.39014  -0.38906  -0.38395
 Alpha  occ. eigenvalues --   -0.38043  -0.37454  -0.37194  -0.36822  -0.36698
 Alpha  occ. eigenvalues --   -0.36386  -0.36100  -0.35681  -0.35630  -0.35488
 Alpha  occ. eigenvalues --   -0.35405  -0.35198  -0.35022  -0.34845  -0.34715
 Alpha  occ. eigenvalues --   -0.34608  -0.34468  -0.34374  -0.34166  -0.33943
 Alpha  occ. eigenvalues --   -0.33749  -0.33476  -0.33238  -0.33063  -0.32877
 Alpha  occ. eigenvalues --   -0.32809  -0.32483  -0.32393  -0.32209  -0.31727
 Alpha  occ. eigenvalues --   -0.31632  -0.31430  -0.31184  -0.31077  -0.30947
 Alpha  occ. eigenvalues --   -0.30793  -0.30585  -0.30227  -0.29530  -0.29184
 Alpha  occ. eigenvalues --   -0.28661
 Alpha virt. eigenvalues --   -0.05331  -0.04865  -0.04386  -0.03788  -0.02906
 Alpha virt. eigenvalues --   -0.02758  -0.02048  -0.01666  -0.01370  -0.01239
 Alpha virt. eigenvalues --   -0.00770  -0.00644  -0.00373   0.00011   0.00426
 Alpha virt. eigenvalues --    0.00617   0.00846   0.00964   0.01404   0.01812
 Alpha virt. eigenvalues --    0.02310   0.02397   0.02633   0.02944   0.03122
 Alpha virt. eigenvalues --    0.03439   0.04049   0.04152   0.04914   0.05117
 Alpha virt. eigenvalues --    0.05509   0.05886   0.06190   0.06558   0.07179
 Alpha virt. eigenvalues --    0.08085   0.08184   0.08689   0.09086   0.10134
 Alpha virt. eigenvalues --    0.10400   0.10979   0.11792   0.12317   0.12996
 Alpha virt. eigenvalues --    0.13541   0.13885   0.14449   0.14603   0.14936
 Alpha virt. eigenvalues --    0.15127   0.16166   0.16285   0.16589   0.16785
 Alpha virt. eigenvalues --    0.17450   0.17868   0.17932   0.18141   0.18516
 Alpha virt. eigenvalues --    0.19270   0.19484   0.19828   0.20029   0.20096
 Alpha virt. eigenvalues --    0.20887   0.21305   0.21578   0.21968   0.22272
 Alpha virt. eigenvalues --    0.22407   0.22684   0.22916   0.23425   0.23860
 Alpha virt. eigenvalues --    0.24003   0.24403   0.24549   0.24999   0.25529
 Alpha virt. eigenvalues --    0.25684   0.26477   0.26799   0.27205   0.27338
 Alpha virt. eigenvalues --    0.27945   0.28662   0.29093   0.29467   0.29965
 Alpha virt. eigenvalues --    0.30452   0.30464   0.31074   0.31373   0.32494
 Alpha virt. eigenvalues --    0.32640   0.33099   0.33741   0.34095   0.35264
 Alpha virt. eigenvalues --    0.35841   0.36248   0.36726   0.36821   0.37835
 Alpha virt. eigenvalues --    0.38383   0.39326   0.39841   0.41162   0.41548
 Alpha virt. eigenvalues --    0.41994   0.44208   0.45649   0.46242   0.47124
 Alpha virt. eigenvalues --    0.49224   0.49466   0.52044   0.55609   0.56704
 Alpha virt. eigenvalues --    0.58317   0.59803   0.60675   0.64704   0.65860
 Alpha virt. eigenvalues --    0.66811   0.76654   0.76913   0.77291   0.79058
 Alpha virt. eigenvalues --    0.80034   0.80351   0.81182   0.81757   0.82227
 Alpha virt. eigenvalues --    0.83916   0.84036   0.84491   0.85261   0.86107
 Alpha virt. eigenvalues --    0.86750   0.87332   0.89060   0.89560   0.90408
 Alpha virt. eigenvalues --    0.90566   0.91882   0.92256   0.92561   0.92991
 Alpha virt. eigenvalues --    0.93284   0.94091   0.94368   0.94625   0.94932
 Alpha virt. eigenvalues --    0.95558   0.96336   0.96532   0.97058   0.97296
 Alpha virt. eigenvalues --    0.97415   0.97956   0.98201   0.98438   0.99142
 Alpha virt. eigenvalues --    0.99330   0.99732   1.00139   1.00846   1.01422
 Alpha virt. eigenvalues --    1.01522   1.01835   1.02776   1.03278   1.03954
 Alpha virt. eigenvalues --    1.04598   1.04900   1.05622   1.05862   1.06298
 Alpha virt. eigenvalues --    1.06957   1.07555   1.07845   1.07987   1.08873
 Alpha virt. eigenvalues --    1.08935   1.09732   1.10192   1.10724   1.10969
 Alpha virt. eigenvalues --    1.11732   1.12097   1.12505   1.13184   1.13836
 Alpha virt. eigenvalues --    1.14318   1.15402   1.16081   1.16201   1.16496
 Alpha virt. eigenvalues --    1.17138   1.17986   1.18653   1.18908   1.19123
 Alpha virt. eigenvalues --    1.19465   1.19970   1.20588   1.20793   1.21361
 Alpha virt. eigenvalues --    1.21991   1.22701   1.22836   1.24019   1.24579
 Alpha virt. eigenvalues --    1.25374   1.25993   1.26747   1.26893   1.27857
 Alpha virt. eigenvalues --    1.29170   1.29590   1.29954   1.30831   1.31994
 Alpha virt. eigenvalues --    1.33071   1.34123   1.34975   1.36109   1.37740
 Alpha virt. eigenvalues --    1.42495   1.42846   1.43364   1.44981   1.46771
 Alpha virt. eigenvalues --    1.47939   1.48926   1.49936   1.50131   1.51010
 Alpha virt. eigenvalues --    1.51697   1.52560   1.53552   1.53769   1.53930
 Alpha virt. eigenvalues --    1.54142   1.54877   1.55512   1.55987   1.56147
 Alpha virt. eigenvalues --    1.57039   1.57371   1.57539   1.57877   1.58132
 Alpha virt. eigenvalues --    1.58364   1.58597   1.59135   1.59494   1.60035
 Alpha virt. eigenvalues --    1.60385   1.61617   1.61873   1.62207   1.62524
 Alpha virt. eigenvalues --    1.63255   1.63561   1.63840   1.64150   1.64626
 Alpha virt. eigenvalues --    1.65533   1.65783   1.66020   1.66794   1.66941
 Alpha virt. eigenvalues --    1.67598   1.67885   1.68570   1.69936   1.70780
 Alpha virt. eigenvalues --    1.71236   1.71473   1.71815   1.72473   1.72736
 Alpha virt. eigenvalues --    1.73246   1.73490   1.73577   1.74852   1.75258
 Alpha virt. eigenvalues --    1.75553   1.76289   1.77157   1.77454   1.77724
 Alpha virt. eigenvalues --    1.78076   1.78211   1.78574   1.78874   1.79244
 Alpha virt. eigenvalues --    1.79440   1.80004   1.80408   1.80711   1.81400
 Alpha virt. eigenvalues --    1.81529   1.81705   1.81925   1.82498   1.82864
 Alpha virt. eigenvalues --    1.83331   1.83480   1.83728   1.84697   1.85046
 Alpha virt. eigenvalues --    1.85495   1.85612   1.86084   1.86512   1.86764
 Alpha virt. eigenvalues --    1.86989   1.87200   1.87470   1.87488   1.88541
 Alpha virt. eigenvalues --    1.89821   1.89943   1.90660   1.91076   1.92446
 Alpha virt. eigenvalues --    1.92641   1.93177   1.94566   1.95093   1.97137
 Alpha virt. eigenvalues --    1.97391   1.97991   1.99293   2.01112   2.01518
 Alpha virt. eigenvalues --    2.04136   2.05584   2.09086   2.09423   2.11938
 Alpha virt. eigenvalues --    2.15150   2.18798   2.31756   2.33407   2.33865
 Alpha virt. eigenvalues --    2.34412   2.34844   2.35005   2.35534   2.35697
 Alpha virt. eigenvalues --    2.36479   2.36696   2.36994   2.38157   2.39661
 Alpha virt. eigenvalues --    2.40029   2.40571   2.41207   2.42608   2.44534
 Alpha virt. eigenvalues --    2.45297   2.46466   2.48002   2.49843   2.52395
 Alpha virt. eigenvalues --    2.55978   2.56896   2.58536   2.59139   2.59404
 Alpha virt. eigenvalues --    2.60107   2.60643   2.60814   2.61105   2.61514
 Alpha virt. eigenvalues --    2.61828   2.61914   2.62361   2.62516   2.62902
 Alpha virt. eigenvalues --    2.62937   2.63111   2.63389   2.63512   2.64060
 Alpha virt. eigenvalues --    2.64156   2.64595   2.65099   2.65505   2.65620
 Alpha virt. eigenvalues --    2.65692   2.65893   2.66216   2.67925   2.68509
 Alpha virt. eigenvalues --    2.69389   2.69858   2.70245   2.71156   2.72859
 Alpha virt. eigenvalues --    2.73999   2.74659   2.75068   2.76492   2.77193
 Alpha virt. eigenvalues --    2.77489   2.77718   2.81776   2.82633   2.84963
 Alpha virt. eigenvalues --    2.86907   2.93667   3.40341   3.40669   3.41150
 Alpha virt. eigenvalues --    3.41560   3.41946   3.42213   3.43348   3.44032
 Alpha virt. eigenvalues --    3.45086   3.45984   3.47400   3.47629   3.48716
 Alpha virt. eigenvalues --    3.49310   3.49782   3.52407   3.54929   3.55319
 Alpha virt. eigenvalues --    4.70666   6.18691   6.57839   7.79370
          Condensed to atoms (all electrons):
 Mulliken charges:
               1
     1  Si   1.291601
     2  O   -0.645897
     3  O   -0.651829
     4  O   -0.651711
     5  O   -0.759544
     6  Zr   1.618861
     7  Si   1.111017
     8  Si   1.159047
     9  Si   1.134370
    10  O   -0.819779
    11  Zr   1.495279
    12  O   -0.831403
    13  Zr   1.594962
    14  O   -0.827586
    15  Zr   1.550934
    16  O   -0.626742
    17  O   -0.574159
    18  O   -0.666084
    19  O   -0.627330
    20  O   -0.612776
    21  O   -0.614114
    22  O   -0.579054
    23  O   -0.652961
    24  O   -0.618776
    25  H    0.354894
    26  H    0.334005
    27  H    0.367103
    28  H    0.369402
    29  H    0.365429
    30  H    0.337706
    31  H    0.336538
    32  H    0.346508
    33  H    0.343303
    34  O   -0.695271
    35  H    0.332487
    36  O   -0.706967
    37  H    0.365505
    38  O   -0.749914
    39  H    0.331350
    40  O   -0.763891
    41  H    0.371607
    42  O   -0.694241
    43  H    0.333996
    44  O   -0.699389
    45  H    0.335243
    46  O   -0.762506
    47  H    0.380711
    48  O   -0.741563
    49  H    0.340307
    50  O   -0.683360
    51  H    0.354682
 Sum of Mulliken charges =  -0.00000
 Mulliken charges with hydrogens summed into heavy atoms:
               1
     1  Si   1.291601
     2  O   -0.645897
     3  O   -0.651829
     4  O   -0.651711
     5  O   -0.759544
     6  Zr   1.618861
     7  Si   1.111017
     8  Si   1.159047
     9  Si   1.134370
    10  O   -0.819779
    11  Zr   1.495279
    12  O   -0.831403
    13  Zr   1.594962
    14  O   -0.827586
    15  Zr   1.550934
    16  O   -0.289037
    17  O   -0.237621
    18  O   -0.300655
    19  O   -0.284027
    20  O   -0.243374
    21  O   -0.267606
    22  O   -0.245049
    23  O   -0.298067
    24  O   -0.251672
    34  O   -0.362784
    36  O   -0.341462
    38  O   -0.418565
    40  O   -0.392284
    42  O   -0.360245
    44  O   -0.364146
    46  O   -0.381795
    48  O   -0.401256
    50  O   -0.328678
 Electronic spatial extent (au):  <R**2>=          26307.2924
 Charge=             -0.0000 electrons
 Dipole moment (field-independent basis, Debye):
    X=              3.0581    Y=              4.2771    Z=              1.4281  Tot=              5.4484
 Quadrupole moment (field-independent basis, Debye-Ang):
   XX=           -298.5721   YY=           -257.2490   ZZ=           -261.0734
   XY=              2.7844   XZ=             10.3029   YZ=             -8.5650
 Traceless Quadrupole moment (field-independent basis, Debye-Ang):
   XX=            -26.2739   YY=             15.0491   ZZ=             11.2248
   XY=              2.7844   XZ=             10.3029   YZ=             -8.5650
 Octapole moment (field-independent basis, Debye-Ang**2):
  XXX=            354.4576  YYY=            107.4069  ZZZ=            -54.5262  XYY=            156.0326
  XXY=             45.2530  XXZ=              8.3494  XZZ=            150.2505  YZZ=             22.0761
  YYZ=            -13.6984  XYZ=             63.7464
 Hexadecapole moment (field-independent basis, Debye-Ang**3):
 XXXX=         -24222.4056 YYYY=          -5756.3942 ZZZZ=          -5161.2005 XXXY=            257.2835
 XXXZ=             31.9859 YYYX=             77.9406 YYYZ=             41.1686 ZZZX=            125.2756
 ZZZY=            -76.4029 XXYY=          -4863.3768 XXZZ=          -4180.2809 YYZZ=          -1747.4398
 XXYZ=           -547.1438 YYXZ=           -215.9748 ZZXY=            134.9249
 N-N= 5.581816031890D+03 E-N=-1.876458700870D+04  KE= 3.091257351585D+03
   1 Symmetry operations used in ECPInt.
 ECPInt:  NShTT=   21321 NPrTT=  126439 LenC2=   15146 LenP2D=   50669.
 LDataN:  DoStor=T MaxTD1= 6 Len=  172
 Number of processors reduced to  14 by ecpmxn.
 Calling FoFJK, ICntrl=      2127 FMM=F ISym2X=0 I1Cent= 0 IOpClX= 0 NMat=1 NMatS=1 NMatT=0.
 Defaulting to unpruned grid for atomic number  40.
 Defaulting to unpruned grid for atomic number  40.
 Defaulting to unpruned grid for atomic number  40.
 Defaulting to unpruned grid for atomic number  40.
 Defaulting to unpruned grid for atomic number  40.
 Defaulting to unpruned grid for atomic number  40.
 Defaulting to unpruned grid for atomic number  40.
 Defaulting to unpruned grid for atomic number  40.
 Defaulting to unpruned grid for atomic number  40.
 Defaulting to unpruned grid for atomic number  40.
 Defaulting to unpruned grid for atomic number  40.
 Defaulting to unpruned grid for atomic number  40.
 Defaulting to unpruned grid for atomic number  40.
 Defaulting to unpruned grid for atomic number  40.
 Defaulting to unpruned grid for atomic number  40.
 Defaulting to unpruned grid for atomic number  40.
 ***** Axes restored to original set *****
 -------------------------------------------------------------------
 Center     Atomic                   Forces (Hartrees/Bohr)
 Number     Number              X              Y              Z
 -------------------------------------------------------------------
      1       14           0.002808364   -0.000950685    0.003499642
      2        8          -0.000372554    0.000617075   -0.001331418
      3        8          -0.000066616    0.000210637   -0.000429074
      4        8          -0.000006401   -0.000023077   -0.000511059
      5        8           0.001660421    0.000225727   -0.001572905
      6       40          -0.003490020   -0.000285279    0.002317973
      7       14           0.002269018    0.000090376   -0.000222609
      8       14           0.000498164   -0.000459803    0.000250600
      9       14           0.000324651    0.000221258    0.000540836
     10        8           0.000651757   -0.000645234   -0.000356185
     11       40          -0.000385824    0.000601834   -0.000210334
     12        8           0.003096075   -0.002945320   -0.001858805
     13       40          -0.004251366    0.007240703   -0.007609855
     14        8           0.000767812    0.000591844   -0.000200312
     15       40          -0.000594652   -0.000169643    0.000070783
     16        8          -0.000145667    0.000032569   -0.000160017
     17        8          -0.000070283    0.000163791   -0.000021541
     18        8          -0.000237477    0.000137061   -0.000201065
     19        8          -0.000567211   -0.000176730   -0.000254434
     20        8          -0.000632418    0.000266706    0.000003443
     21        8           0.007509990    0.002808665   -0.005903447
     22        8          -0.000051284   -0.000069194   -0.000180456
     23        8          -0.000129466   -0.000025147   -0.000102015
     24        8          -0.000142593   -0.000129519   -0.000320236
     25        1          -0.000018358   -0.000041248    0.000038920
     26        1           0.000003363    0.000029003    0.000038195
     27        1           0.000154896    0.000189259    0.000314401
     28        1           0.000302424   -0.000173049    0.000163672
     29        1           0.000111038    0.000057827    0.000009131
     30        1           0.000011576   -0.000014832    0.000049180
     31        1           0.000004115   -0.000085391    0.000031801
     32        1          -0.005699291   -0.003272548    0.006092440
     33        1           0.000246022    0.000136171    0.000051804
     34        8          -0.000018927   -0.000052562   -0.000012182
     35        1           0.000006715    0.000008902    0.000003450
     36        8           0.000072600   -0.000098570    0.000068390
     37        1          -0.000056197    0.000093370   -0.000026450
     38        8          -0.000029424   -0.000146813    0.000204756
     39        1           0.000011717    0.000003116    0.000004090
     40        8           0.000291868   -0.000190080    0.000194777
     41        1          -0.000029780    0.000128678   -0.000279438
     42        8           0.000047948    0.000033511   -0.000098776
     43        1          -0.000005081   -0.000008455    0.000009888
     44        8           0.000069710    0.000078415    0.000050637
     45        1          -0.000029199   -0.000014390   -0.000018884
     46        8          -0.000177128   -0.000020933    0.000672951
     47        1           0.000109210   -0.000094180   -0.000256321
     48        8          -0.000149135   -0.000378662    0.000374675
     49        1           0.000118633    0.000131659   -0.000118529
     50        8          -0.010206022   -0.000267729    0.006474811
     51        1           0.006414287   -0.003359085    0.000725101
 -------------------------------------------------------------------
 Cartesian Forces:  Max     0.010206022 RMS     0.001959580

 GradGradGradGradGradGradGradGradGradGradGradGradGradGradGradGradGradGrad
 Berny optimization.
 FormGI is forming the generalized inverse of G from B-inverse, IUseBI=4.
 Internal  Forces:  Max     0.028016837 RMS     0.002983459
 Search for a local minimum.
 Step number   1 out of a maximum of  229
 All quantities printed in internal units (Hartrees-Bohrs-Radians)
 Mixed Optimization -- RFO/linear search
 Second derivative matrix not updated -- first step.
 ITU=  0
     Eigenvalues ---    0.00230   0.00230   0.00230   0.00230   0.00230
     Eigenvalues ---    0.00230   0.00230   0.00230   0.00230   0.00230
     Eigenvalues ---    0.00230   0.00230   0.00230   0.00230   0.00230
     Eigenvalues ---    0.00230   0.03447   0.03470   0.03516   0.03601
     Eigenvalues ---    0.03614   0.03629   0.03654   0.03686   0.03816
     Eigenvalues ---    0.03823   0.03827   0.03839   0.03923   0.03964
     Eigenvalues ---    0.04008   0.04039   0.06239   0.08354   0.08564
     Eigenvalues ---    0.08974   0.09448   0.10123   0.10678   0.11232
     Eigenvalues ---    0.11368   0.11507   0.11595   0.11636   0.11773
     Eigenvalues ---    0.11825   0.11923   0.12003   0.12146   0.12566
     Eigenvalues ---    0.12661   0.12746   0.12781   0.12915   0.12948
     Eigenvalues ---    0.13420   0.16000   0.16000   0.16000   0.16000
     Eigenvalues ---    0.16000   0.16000   0.16000   0.16000   0.16000
     Eigenvalues ---    0.16000   0.16000   0.16000   0.16000   0.16000
     Eigenvalues ---    0.16000   0.16000   0.16000   0.16000   0.16475
     Eigenvalues ---    0.16652   0.16972   0.17555   0.17903   0.18060
     Eigenvalues ---    0.18629   0.18752   0.19259   0.19512   0.19624
     Eigenvalues ---    0.19663   0.19719   0.19731   0.19849   0.20192
     Eigenvalues ---    0.20247   0.20296   0.20320   0.20376   0.20393
     Eigenvalues ---    0.20422   0.20645   0.20651   0.20806   0.20823
     Eigenvalues ---    0.20868   0.21021   0.21050   0.21076   0.21270
     Eigenvalues ---    0.21906   0.25000   0.25000   0.25000   0.25000
     Eigenvalues ---    0.25000   0.25000   0.40115   0.40361   0.40848
     Eigenvalues ---    0.41777   0.41931   0.42098   0.42374   0.42741
     Eigenvalues ---    0.44274   0.44356   0.44406   0.44546   0.45586
     Eigenvalues ---    0.46106   0.46669   0.47064   0.51271   0.51298
     Eigenvalues ---    0.51607   0.51682   0.51718   0.52103   0.52343
     Eigenvalues ---    0.52513   0.53065   0.54681   0.54684   0.54737
     Eigenvalues ---    0.54743   0.54756   0.54764   0.55003   0.55453
     Eigenvalues ---    0.556791000.000001000.000001000.000001000.00000
     Eigenvalues --- 1000.000001000.000001000.000001000.000001000.00000
     Eigenvalues --- 1000.000001000.000001000.000001000.000001000.00000
     Eigenvalues --- 1000.000001000.000001000.000001000.000001000.00000
     Eigenvalues --- 1000.000001000.000001000.000001000.000001000.00000
     Eigenvalues --- 1000.000001000.000001000.000001000.000001000.00000
     Eigenvalues --- 1000.000001000.000001000.000001000.000001000.00000
     Eigenvalues --- 1000.000001000.000001000.000001000.000001000.00000
     Eigenvalues --- 1000.000001000.000001000.000001000.000001000.00000
     Eigenvalues --- 1000.000001000.000001000.000001000.000001000.00000
     Eigenvalues --- 1000.000001000.000001000.000001000.000001000.00000
     Eigenvalues --- 1000.000001000.000001000.000001000.000001000.00000
     Eigenvalues --- 1000.000001000.000001000.000001000.000001000.00000
     Eigenvalues --- 1000.000001000.000001000.000001000.000001000.00000
     Eigenvalues --- 1000.000001000.000001000.000001000.00000
 RFO step:  Lambda=-6.76944456D-03 EMin= 2.30000000D-03
 Linear search not attempted -- first point.
 Iteration  1 RMS(Cart)=  0.21060730 RMS(Int)=  0.00471169
 Iteration  2 RMS(Cart)=  0.01838765 RMS(Int)=  0.00009044
 Iteration  3 RMS(Cart)=  0.00008777 RMS(Int)=  0.00008713
 Iteration  4 RMS(Cart)=  0.00000000 RMS(Int)=  0.00008713
 Iteration  1 RMS(Cart)=  0.00000000 RMS(Int)=  0.00000000
 Variable       Old X    -DE/DX   Delta X   Delta X   Delta X     New X
                                 (Linear)    (Quad)   (Total)
    R1        3.09828  -0.00119   0.00000  -0.00265  -0.00265   3.09563
    R2        3.12499  -0.00003   0.00000  -0.00006  -0.00006   3.12493
    R3        3.09671  -0.00006   0.00000  -0.00014  -0.00014   3.09657
    R4        3.06649  -0.00507   0.00000  -0.01063  -0.01063   3.05586
    R5        3.07712  -0.00065   0.00000  -0.00139  -0.00139   3.07574
    R6        3.11691  -0.00020   0.00000  -0.00046  -0.00046   3.11645
    R7        3.14118  -0.00017   0.00000  -0.00042  -0.00042   3.14076
    R8        3.80049  -0.00769   0.00000  -0.04219  -0.04219   3.75830
    R9        3.64786   0.00043   0.00000   0.00192   0.00192   3.64977
   R10        3.82478  -0.00307   0.00000  -0.01738  -0.01738   3.80740
   R11        3.72227   0.00071   0.00000   0.00351   0.00351   3.72577
   R12        3.15098   0.00015   0.00000   0.00037   0.00037   3.15135
   R13        3.08301   0.00035   0.00000   0.00075   0.00075   3.08376
   R14        3.12149   0.00164   0.00000   0.00382   0.00382   3.12531
   R15        3.12908   0.00016   0.00000   0.00038   0.00038   3.12946
   R16        3.09506   0.00008   0.00000   0.00019   0.00019   3.09525
   R17        3.12711  -0.00023   0.00000  -0.00053  -0.00053   3.12658
   R18        3.09730   0.00015   0.00000   0.00034   0.00034   3.09764
   R19        3.14766   0.00007   0.00000   0.00018   0.00018   3.14784
   R20        3.07084  -0.00004   0.00000  -0.00009  -0.00009   3.07075
   R21        3.84639  -0.00056   0.00000  -0.00324  -0.00324   3.84315
   R22        3.71853   0.00002   0.00000   0.00009   0.00009   3.71862
   R23        3.67542   0.00001   0.00000   0.00005   0.00005   3.67548
   R24        3.83859   0.00021   0.00000   0.00119   0.00119   3.83978
   R25        3.72623  -0.00785   0.00000  -0.03889  -0.03889   3.68734
   R26        3.78033  -0.00023   0.00000  -0.00125  -0.00125   3.77908
   R27        3.78652  -0.00014   0.00000  -0.00073  -0.00073   3.78579
   R28        3.66753   0.00886   0.00000   0.04035   0.04035   3.70788
   R29        3.75386  -0.00028   0.00000  -0.00145  -0.00145   3.75241
   R30        3.75846   0.00015   0.00000   0.00076   0.00076   3.75923
   R31        3.69500   0.00010   0.00000   0.00047   0.00047   3.69547
   R32        3.68180   0.00007   0.00000   0.00034   0.00034   3.68214
   R33        1.82117  -0.00005   0.00000  -0.00008  -0.00008   1.82108
   R34        1.82049  -0.00003   0.00000  -0.00005  -0.00005   1.82045
   R35        1.85304  -0.00009   0.00000  -0.00017  -0.00017   1.85287
   R36        1.82114  -0.00014   0.00000  -0.00025  -0.00025   1.82088
   R37        1.84977  -0.00037   0.00000  -0.00071  -0.00071   1.84907
   R38        1.84500  -0.00889   0.00000  -0.01684  -0.01684   1.82817
   R39        1.82042  -0.00003   0.00000  -0.00005  -0.00005   1.82037
   R40        1.83593  -0.00005   0.00000  -0.00008  -0.00008   1.83585
   R41        1.84272   0.00039   0.00000   0.00073   0.00073   1.84345
   R42        1.81829   0.00000   0.00000   0.00001   0.00001   1.81830
   R43        1.84905   0.00004   0.00000   0.00008   0.00008   1.84912
   R44        1.82066  -0.00000   0.00000  -0.00001  -0.00001   1.82066
   R45        1.85278  -0.00030   0.00000  -0.00058  -0.00058   1.85219
   R46        1.81432  -0.00001   0.00000  -0.00003  -0.00003   1.81429
   R47        1.81234  -0.00001   0.00000  -0.00001  -0.00001   1.81232
   R48        1.84871   0.00013   0.00000   0.00024   0.00024   1.84895
   R49        1.82061  -0.00000   0.00000  -0.00000  -0.00000   1.82061
   R50        1.84112  -0.00599   0.00000  -0.01125  -0.01125   1.82986
    A1        1.89403   0.00430   0.00000   0.02207   0.02204   1.91608
    A2        1.88617   0.00131   0.00000   0.00426   0.00405   1.89022
    A3        1.87938  -0.00883   0.00000  -0.05309  -0.05305   1.82634
    A4        1.91364  -0.00131   0.00000   0.00548   0.00524   1.91888
    A5        1.92354   0.00182   0.00000   0.01005   0.01009   1.93363
    A6        1.96515   0.00270   0.00000   0.01078   0.01054   1.97569
    A7        2.84348   0.01078   0.00000   0.04200   0.04200   2.88548
    A8        2.31720  -0.00000   0.00000  -0.00001  -0.00001   2.31719
    A9        2.35610  -0.00098   0.00000  -0.00382  -0.00382   2.35228
   A10        2.59942  -0.02802   0.00000   0.00000  -0.00000   2.59942
   A11        1.98022   0.00242   0.00000   0.01388   0.01322   1.99344
   A12        1.98271  -0.01255   0.00000  -0.08287  -0.08275   1.89996
   A13        1.99112   0.00383   0.00000   0.02295   0.02260   2.01373
   A14        1.77332   0.00375   0.00000   0.01332   0.01300   1.78632
   A15        1.88957  -0.00190   0.00000   0.01256   0.01194   1.90151
   A16        1.82833   0.00467   0.00000   0.02115   0.02111   1.84944
   A17        1.81235  -0.00044   0.00000  -0.00347  -0.00346   1.80889
   A18        1.98544   0.00040   0.00000   0.00266   0.00266   1.98810
   A19        1.86767  -0.00000   0.00000   0.00060   0.00059   1.86826
   A20        1.94580  -0.00028   0.00000  -0.00192  -0.00192   1.94389
   A21        1.92845  -0.00019   0.00000  -0.00169  -0.00169   1.92676
   A22        1.92030   0.00046   0.00000   0.00345   0.00344   1.92374
   A23        1.94596  -0.00006   0.00000  -0.00033  -0.00033   1.94563
   A24        1.88055  -0.00004   0.00000  -0.00011  -0.00011   1.88044
   A25        1.93311   0.00026   0.00000   0.00163   0.00163   1.93475
   A26        1.93173  -0.00002   0.00000  -0.00052  -0.00052   1.93121
   A27        1.82723  -0.00008   0.00000  -0.00045  -0.00045   1.82678
   A28        1.94617  -0.00005   0.00000  -0.00022  -0.00022   1.94595
   A29        1.88532  -0.00003   0.00000  -0.00021  -0.00021   1.88511
   A30        1.89442   0.00022   0.00000   0.00121   0.00121   1.89563
   A31        1.95715  -0.00016   0.00000  -0.00078  -0.00078   1.95637
   A32        1.87632  -0.00012   0.00000  -0.00054  -0.00054   1.87577
   A33        1.94135   0.00011   0.00000   0.00035   0.00035   1.94170
   A34        1.90697  -0.00001   0.00000   0.00001   0.00001   1.90698
   A35        2.53227  -0.00043   0.00000  -0.00168  -0.00168   2.53059
   A36        1.81826   0.00012   0.00000   0.00114   0.00114   1.81940
   A37        1.87907   0.00001   0.00000  -0.00036  -0.00036   1.87871
   A38        2.09285  -0.00017   0.00000  -0.00128  -0.00128   2.09156
   A39        1.80039   0.00002   0.00000   0.00075   0.00075   1.80113
   A40        1.73310   0.00006   0.00000   0.00090   0.00090   1.73401
   A41        2.08556   0.00002   0.00000  -0.00028  -0.00028   2.08528
   A42        2.29330   0.00914   0.00000   0.03559   0.03559   2.32889
   A43        1.83467  -0.00032   0.00000  -0.00084  -0.00082   1.83385
   A44        1.90442  -0.00048   0.00000  -0.00022  -0.00024   1.90419
   A45        1.85062   0.00190   0.00000   0.01329   0.01329   1.86391
   A46        1.91620   0.00036   0.00000  -0.00207  -0.00210   1.91410
   A47        1.99552  -0.00115   0.00000  -0.00758  -0.00759   1.98793
   A48        1.95546  -0.00025   0.00000  -0.00164  -0.00168   1.95378
   A49        2.44669   0.00065   0.00000   0.00253   0.00253   2.44922
   A50        1.83016   0.00033   0.00000   0.00237   0.00237   1.83254
   A51        1.92532  -0.00011   0.00000  -0.00068  -0.00067   1.92465
   A52        1.89530  -0.00004   0.00000   0.00010   0.00010   1.89539
   A53        1.89947  -0.00018   0.00000  -0.00115  -0.00115   1.89832
   A54        1.93644  -0.00000   0.00000   0.00016   0.00016   1.93660
   A55        1.97197   0.00002   0.00000  -0.00059  -0.00059   1.97138
   A56        2.03455  -0.00004   0.00000  -0.00026  -0.00026   2.03429
   A57        2.01642  -0.00012   0.00000  -0.00074  -0.00074   2.01568
   A58        1.93923  -0.00006   0.00000  -0.00036  -0.00036   1.93887
   A59        2.03937  -0.00030   0.00000  -0.00180  -0.00180   2.03757
   A60        1.98603  -0.00018   0.00000  -0.00109  -0.00109   1.98495
   A61        1.92108   0.00173   0.00000   0.01038   0.01038   1.93146
   A62        2.02348  -0.00007   0.00000  -0.00042  -0.00042   2.02306
[...]
     49          1           0        3.724864    0.402672    3.933584
     50          8           0        0.957519   -1.843089    3.715744
     51          1           0       -0.004943   -1.746372    3.831996
 ---------------------------------------------------------------------
 Rotational constants (GHZ):           0.0861730           0.0382160           0.0357668

 **********************************************************************

            Population analysis using the SCF Density.

 **********************************************************************

 Orbital symmetries:
       Occupied  (A) (A) (A) (A) (A) (A) (A) (A) (A) (A) (A) (A)
                 (A) (A) (A) (A) (A) (A) (A) (A) (A) (A) (A) (A)
                 (A) (A) (A) (A) (A) (A) (A) (A) (A) (A) (A) (A)
                 (A) (A) (A) (A) (A) (A) (A) (A) (A) (A) (A) (A)
                 (A) (A) (A) (A) (A) (A) (A) (A) (A) (A) (A) (A)
                 (A) (A) (A) (A) (A) (A) (A) (A) (A) (A) (A) (A)
                 (A) (A) (A) (A) (A) (A) (A) (A) (A) (A) (A) (A)
                 (A) (A) (A) (A) (A) (A) (A) (A) (A) (A) (A) (A)
                 (A) (A) (A) (A) (A) (A) (A) (A) (A) (A) (A) (A)
                 (A) (A) (A) (A) (A) (A) (A) (A) (A) (A) (A) (A)
                 (A) (A) (A) (A) (A) (A) (A) (A) (A) (A) (A) (A)
                 (A) (A) (A) (A) (A) (A) (A) (A) (A) (A) (A) (A)
                 (A) (A) (A) (A) (A) (A) (A) (A) (A) (A) (A) (A)
                 (A) (A) (A) (A) (A)
       Virtual   (A) (A) (A) (A) (A) (A) (A) (A) (A) (A) (A) (A)
                 (A) (A) (A) (A) (A) (A) (A) (A) (A) (A) (A) (A)
                 (A) (A) (A) (A) (A) (A) (A) (A) (A) (A) (A) (A)
                 (A) (A) (A) (A) (A) (A) (A) (A) (A) (A) (A) (A)
                 (A) (A) (A) (A) (A) (A) (A) (A) (A) (A) (A) (A)
                 (A) (A) (A) (A) (A) (A) (A) (A) (A) (A) (A) (A)
                 (A) (A) (A) (A) (A) (A) (A) (A) (A) (A) (A) (A)
                 (A) (A) (A) (A) (A) (A) (A) (A) (A) (A) (A) (A)
                 (A) (A) (A) (A) (A) (A) (A) (A) (A) (A) (A) (A)
                 (A) (A) (A) (A) (A) (A) (A) (A) (A) (A) (A) (A)
                 (A) (A) (A) (A) (A) (A) (A) (A) (A) (A) (A) (A)
                 (A) (A) (A) (A) (A) (A) (A) (A) (A) (A) (A) (A)
                 (A) (A) (A) (A) (A) (A) (A) (A) (A) (A) (A) (A)
                 (A) (A) (A) (A) (A) (A) (A) (A) (A) (A) (A) (A)
                 (A) (A) (A) (A) (A) (A) (A) (A) (A) (A) (A) (A)
                 (A) (A) (A) (A) (A) (A) (A) (A) (A) (A) (A) (A)
                 (A) (A) (A) (A) (A) (A) (A) (A) (A) (A) (A) (A)
                 (A) (A) (A) (A) (A) (A) (A) (A) (A) (A) (A) (A)
                 (A) (A) (A) (A) (A) (A) (A) (A) (A) (A) (A) (A)
                 (A) (A) (A) (A) (A) (A) (A) (A) (A) (A) (A) (A)
                 (A) (A) (A) (A) (A) (A) (A) (A) (A) (A) (A) (A)
                 (A) (A) (A) (A) (A) (A) (A) (A) (A) (A) (A) (A)
                 (A) (A) (A) (A) (A) (A) (A) (A) (A) (A) (A) (A)
                 (A) (A) (A) (A) (A) (A) (A) (A) (A) (A) (A) (A)
                 (A) (A) (A) (A) (A) (A) (A) (A) (A) (A) (A) (A)
                 (A) (A) (A) (A) (A) (A) (A) (A) (A) (A) (A) (A)
                 (A) (A) (A) (A) (A) (A) (A) (A) (A) (A) (A) (A)
                 (A) (A) (A) (A) (A) (A) (A) (A) (A) (A) (A) (A)
                 (A) (A) (A) (A) (A) (A) (A) (A) (A) (A) (A) (A)
                 (A) (A) (A) (A) (A) (A) (A) (A) (A) (A) (A) (A)
                 (A) (A) (A) (A) (A) (A) (A) (A) (A) (A) (A) (A)
                 (A) (A) (A) (A) (A) (A) (A) (A) (A) (A) (A) (A)
                 (A) (A) (A) (A) (A) (A) (A) (A) (A) (A) (A) (A)
                 (A) (A) (A) (A) (A) (A) (A) (A) (A) (A) (A) (A)
                 (A) (A) (A) (A) (A) (A) (A) (A) (A) (A) (A) (A)
                 (A) (A) (A) (A) (A) (A) (A) (A) (A) (A) (A) (A)
                 (A) (A) (A) (A) (A) (A) (A)
 The electronic state is 1-A.
 Alpha  occ. eigenvalues --  -66.22059 -66.21803 -66.21255 -66.20199 -19.16992
 Alpha  occ. eigenvalues --  -19.16850 -19.16389 -19.16354 -19.16051 -19.15992
 Alpha  occ. eigenvalues --  -19.15918 -19.15779 -19.15758 -19.15691 -19.15549
 Alpha  occ. eigenvalues --  -19.15335 -19.14830 -19.14692 -19.14576 -19.14382
 Alpha  occ. eigenvalues --  -19.14348 -19.14293 -19.14261 -19.14196 -19.13403
 Alpha  occ. eigenvalues --  -19.13217 -19.12578 -19.12107 -19.11638  -5.36036
 Alpha  occ. eigenvalues --   -5.36022  -5.35445  -5.34405  -3.72054  -3.72000
 Alpha  occ. eigenvalues --   -3.71974  -3.71973  -3.71944  -3.71919  -3.71514
 Alpha  occ. eigenvalues --   -3.71357  -3.71288  -3.70395  -3.70356  -3.70281
 Alpha  occ. eigenvalues --   -2.08258  -2.06981  -2.06866  -2.05084  -1.29323
 Alpha  occ. eigenvalues --   -1.28929  -1.28517  -1.28031  -1.27804  -1.27744
 Alpha  occ. eigenvalues --   -1.27234  -1.27220  -1.26773  -1.25727  -1.25470
 Alpha  occ. eigenvalues --   -1.25146  -1.05237  -1.04209  -1.03060  -1.01849
 Alpha  occ. eigenvalues --   -1.01373  -1.01068  -1.00896  -0.99740  -0.99462
 Alpha  occ. eigenvalues --   -0.98716  -0.98475  -0.98332  -0.97930  -0.97409
 Alpha  occ. eigenvalues --   -0.96758  -0.96295  -0.95543  -0.95199  -0.95036
 Alpha  occ. eigenvalues --   -0.93890  -0.93662  -0.92096  -0.91253  -0.89554
 Alpha  occ. eigenvalues --   -0.88448  -0.61649  -0.59556  -0.58739  -0.55900
 Alpha  occ. eigenvalues --   -0.54276  -0.53403  -0.52239  -0.52103  -0.51386
 Alpha  occ. eigenvalues --   -0.51364  -0.51069  -0.50971  -0.50564  -0.50219
 Alpha  occ. eigenvalues --   -0.50194  -0.49090  -0.48935  -0.47754  -0.46755
 Alpha  occ. eigenvalues --   -0.45999  -0.45654  -0.44772  -0.42895  -0.41864
 Alpha  occ. eigenvalues --   -0.41673  -0.41232  -0.40587  -0.40425  -0.40044
 Alpha  occ. eigenvalues --   -0.39706  -0.39493  -0.39167  -0.39023  -0.38424
 Alpha  occ. eigenvalues --   -0.37868  -0.37558  -0.37349  -0.36997  -0.36902
 Alpha  occ. eigenvalues --   -0.36601  -0.36207  -0.35929  -0.35718  -0.35639
 Alpha  occ. eigenvalues --   -0.35472  -0.35196  -0.35023  -0.34817  -0.34757
 Alpha  occ. eigenvalues --   -0.34648  -0.34341  -0.34235  -0.34056  -0.33981
 Alpha  occ. eigenvalues --   -0.33812  -0.33503  -0.33378  -0.33095  -0.32999
 Alpha  occ. eigenvalues --   -0.32862  -0.32595  -0.32560  -0.32252  -0.31963
 Alpha  occ. eigenvalues --   -0.31842  -0.31609  -0.31496  -0.31171  -0.31070
 Alpha  occ. eigenvalues --   -0.30850  -0.30708  -0.30243  -0.29526  -0.29136
 Alpha  occ. eigenvalues --   -0.28594
 Alpha virt. eigenvalues --   -0.05219  -0.04762  -0.04423  -0.03494  -0.02879
 Alpha virt. eigenvalues --   -0.02710  -0.01973  -0.01669  -0.01349  -0.01034
 Alpha virt. eigenvalues --   -0.00693  -0.00632  -0.00400   0.00046   0.00501
 Alpha virt. eigenvalues --    0.00619   0.00864   0.01407   0.01524   0.01777
 Alpha virt. eigenvalues --    0.02227   0.02430   0.02720   0.02842   0.03278
 Alpha virt. eigenvalues --    0.03719   0.04122   0.04178   0.04998   0.05431
 Alpha virt. eigenvalues --    0.05795   0.05848   0.06202   0.06461   0.07115
 Alpha virt. eigenvalues --    0.08030   0.08330   0.08700   0.09632   0.10154
 Alpha virt. eigenvalues --    0.10436   0.11249   0.11585   0.12382   0.12837
 Alpha virt. eigenvalues --    0.13400   0.13969   0.14526   0.14961   0.15212
 Alpha virt. eigenvalues --    0.15985   0.16327   0.16414   0.16518   0.16979
 Alpha virt. eigenvalues --    0.17509   0.17867   0.18153   0.18482   0.18572
 Alpha virt. eigenvalues --    0.19285   0.19351   0.19873   0.20175   0.20629
 Alpha virt. eigenvalues --    0.20816   0.21194   0.21492   0.22017   0.22153
 Alpha virt. eigenvalues --    0.22461   0.22770   0.23115   0.23354   0.23957
 Alpha virt. eigenvalues --    0.24190   0.24388   0.24586   0.24927   0.25581
 Alpha virt. eigenvalues --    0.25796   0.26383   0.26725   0.27448   0.27581
 Alpha virt. eigenvalues --    0.28388   0.28893   0.29008   0.29855   0.29977
 Alpha virt. eigenvalues --    0.30153   0.30836   0.31165   0.31866   0.32587
 Alpha virt. eigenvalues --    0.33291   0.33532   0.34169   0.34443   0.35208
 Alpha virt. eigenvalues --    0.35829   0.36309   0.36803   0.37283   0.37605
 Alpha virt. eigenvalues --    0.38114   0.39641   0.40567   0.41309   0.41897
 Alpha virt. eigenvalues --    0.42307   0.44456   0.44553   0.46659   0.47134
 Alpha virt. eigenvalues --    0.49206   0.50120   0.51967   0.55000   0.56381
 Alpha virt. eigenvalues --    0.58140   0.59738   0.60673   0.64902   0.65725
 Alpha virt. eigenvalues --    0.66814   0.76690   0.76975   0.78922   0.79704
 Alpha virt. eigenvalues --    0.80264   0.80966   0.81092   0.82414   0.83804
 Alpha virt. eigenvalues --    0.83870   0.84143   0.84840   0.86092   0.86829
 Alpha virt. eigenvalues --    0.87012   0.88210   0.88941   0.89602   0.90200
 Alpha virt. eigenvalues --    0.90680   0.91828   0.92209   0.92403   0.93155
 Alpha virt. eigenvalues --    0.93255   0.94142   0.94379   0.94834   0.95479
 Alpha virt. eigenvalues --    0.96332   0.96488   0.96825   0.97268   0.97503
 Alpha virt. eigenvalues --    0.97623   0.97937   0.98260   0.98641   0.99204
 Alpha virt. eigenvalues --    0.99381   1.00025   1.00632   1.00790   1.01029
 Alpha virt. eigenvalues --    1.02349   1.02658   1.02966   1.03286   1.03922
 Alpha virt. eigenvalues --    1.04795   1.05642   1.05770   1.06204   1.06588
 Alpha virt. eigenvalues --    1.07080   1.07328   1.08143   1.08717   1.08876
 Alpha virt. eigenvalues --    1.09439   1.10010   1.10094   1.10399   1.10932
 Alpha virt. eigenvalues --    1.12005   1.12266   1.13169   1.13714   1.13843
 Alpha virt. eigenvalues --    1.14729   1.15819   1.16054   1.16461   1.17106
 Alpha virt. eigenvalues --    1.17398   1.17873   1.18900   1.18997   1.19105
 Alpha virt. eigenvalues --    1.19692   1.19953   1.21059   1.21290   1.21441
 Alpha virt. eigenvalues --    1.21887   1.22246   1.23137   1.23473   1.24324
 Alpha virt. eigenvalues --    1.25653   1.26245   1.26775   1.27423   1.28127
 Alpha virt. eigenvalues --    1.28522   1.29531   1.30419   1.30507   1.31829
 Alpha virt. eigenvalues --    1.33757   1.34082   1.35354   1.35687   1.37986
 Alpha virt. eigenvalues --    1.42746   1.43193   1.44272   1.45189   1.47063
 Alpha virt. eigenvalues --    1.47917   1.49049   1.50095   1.50822   1.51499
 Alpha virt. eigenvalues --    1.51948   1.52635   1.53750   1.53853   1.54637
 Alpha virt. eigenvalues --    1.55060   1.55625   1.55714   1.55976   1.56777
 Alpha virt. eigenvalues --    1.56931   1.57502   1.57855   1.58372   1.58462
 Alpha virt. eigenvalues --    1.59092   1.59352   1.59943   1.60361   1.60678
 Alpha virt. eigenvalues --    1.61090   1.61909   1.62282   1.62330   1.62887
 Alpha virt. eigenvalues --    1.63248   1.63797   1.63920   1.64336   1.65127
 Alpha virt. eigenvalues --    1.65534   1.65857   1.66002   1.66968   1.67055
 Alpha virt. eigenvalues --    1.67529   1.67970   1.68833   1.70390   1.70513
 Alpha virt. eigenvalues --    1.71177   1.71632   1.72033   1.72524   1.72888
 Alpha virt. eigenvalues --    1.73296   1.73537   1.74168   1.74928   1.75556
 Alpha virt. eigenvalues --    1.76106   1.76586   1.77317   1.77505   1.77951
 Alpha virt. eigenvalues --    1.78209   1.78448   1.78593   1.78867   1.79205
 Alpha virt. eigenvalues --    1.79544   1.80149   1.80469   1.81206   1.81376
 Alpha virt. eigenvalues --    1.81624   1.82273   1.82461   1.82990   1.83350
 Alpha virt. eigenvalues --    1.83772   1.83953   1.84822   1.84990   1.85425
 Alpha virt. eigenvalues --    1.85516   1.85672   1.86276   1.86426   1.86953
 Alpha virt. eigenvalues --    1.87160   1.87587   1.87738   1.88346   1.89219
 Alpha virt. eigenvalues --    1.90352   1.90869   1.91198   1.91634   1.92490
 Alpha virt. eigenvalues --    1.92734   1.93745   1.94520   1.95083   1.96746
 Alpha virt. eigenvalues --    1.97262   1.97843   1.99548   2.00813   2.01800
 Alpha virt. eigenvalues --    2.04086   2.06916   2.08063   2.10089   2.11962
 Alpha virt. eigenvalues --    2.15794   2.20192   2.26609   2.33648   2.33924
 Alpha virt. eigenvalues --    2.34545   2.34951   2.35048   2.36310   2.36539
 Alpha virt. eigenvalues --    2.36926   2.37807   2.37927   2.39185   2.39608
 Alpha virt. eigenvalues --    2.39704   2.40696   2.41010   2.42554   2.44326
 Alpha virt. eigenvalues --    2.44564   2.46393   2.47275   2.48472   2.51695
 Alpha virt. eigenvalues --    2.55951   2.56385   2.58165   2.59274   2.59582
 Alpha virt. eigenvalues --    2.60163   2.60638   2.61253   2.61507   2.61999
 Alpha virt. eigenvalues --    2.62030   2.62284   2.62474   2.62809   2.62971
 Alpha virt. eigenvalues --    2.63070   2.63158   2.63489   2.63768   2.64072
 Alpha virt. eigenvalues --    2.64545   2.64770   2.65468   2.65523   2.65711
 Alpha virt. eigenvalues --    2.65756   2.65983   2.67523   2.68488   2.69050
 Alpha virt. eigenvalues --    2.69770   2.70773   2.71634   2.72782   2.73333
 Alpha virt. eigenvalues --    2.74512   2.74943   2.76190   2.76822   2.77121
 Alpha virt. eigenvalues --    2.77550   2.77994   2.81214   2.81965   2.84563
 Alpha virt. eigenvalues --    2.86461   2.95144   3.40454   3.40619   3.41183
 Alpha virt. eigenvalues --    3.41476   3.42119   3.43309   3.43804   3.45101
 Alpha virt. eigenvalues --    3.46076   3.46524   3.47328   3.47712   3.49892
 Alpha virt. eigenvalues --    3.50195   3.51592   3.54301   3.54623   3.55580
 Alpha virt. eigenvalues --    4.71269   6.19400   6.58180   7.78554
          Condensed to atoms (all electrons):
 Mulliken charges:
               1
     1  Si   1.287593
     2  O   -0.637556
     3  O   -0.652210
     4  O   -0.651459
     5  O   -0.759471
     6  Zr   1.624538
     7  Si   1.113056
     8  Si   1.160104
     9  Si   1.137173
    10  O   -0.821227
    11  Zr   1.491564
    12  O   -0.858632
    13  Zr   1.594486
    14  O   -0.828703
    15  Zr   1.552863
    16  O   -0.626119
    17  O   -0.575059
    18  O   -0.660471
    19  O   -0.623433
    20  O   -0.611547
    21  O   -0.642533
    22  O   -0.577722
    23  O   -0.654516
    24  O   -0.617035
    25  H    0.354995
    26  H    0.333661
    27  H    0.365572
    28  H    0.367790
    29  H    0.363838
    30  H    0.337544
    31  H    0.336106
    32  H    0.378770
    33  H    0.344323
    34  O   -0.694940
    35  H    0.332391
    36  O   -0.707200
    37  H    0.365085
    38  O   -0.749520
    39  H    0.331215
    40  O   -0.764177
    41  H    0.372107
    42  O   -0.694719
    43  H    0.334325
    44  O   -0.699119
    45  H    0.335314
    46  O   -0.762345
    47  H    0.380530
    48  O   -0.741951
    49  H    0.340144
    50  O   -0.691766
    51  H    0.368345
 Sum of Mulliken charges =  -0.00000
 Mulliken charges with hydrogens summed into heavy atoms:
               1
     1  Si   1.287593
     2  O   -0.637556
     3  O   -0.652210
     4  O   -0.651459
     5  O   -0.759471
     6  Zr   1.624538
     7  Si   1.113056
     8  Si   1.160104
     9  Si   1.137173
    10  O   -0.821227
    11  Zr   1.491564
    12  O   -0.858632
    13  Zr   1.594486
    14  O   -0.828703
    15  Zr   1.552863
    16  O   -0.288574
    17  O   -0.238952
    18  O   -0.296634
    19  O   -0.279111
    20  O   -0.243756
    21  O   -0.263763
    22  O   -0.244061
    23  O   -0.299520
    24  O   -0.251464
    34  O   -0.362550
    36  O   -0.342116
    38  O   -0.418305
    40  O   -0.392070
    42  O   -0.360394
    44  O   -0.363804
    46  O   -0.381815
    48  O   -0.401808
    50  O   -0.323421
 Electronic spatial extent (au):  <R**2>=          25463.1249
 Charge=             -0.0000 electrons
 Dipole moment (field-independent basis, Debye):
    X=              2.1453    Y=              4.5378    Z=              0.8744  Tot=              5.0949
 Quadrupole moment (field-independent basis, Debye-Ang):
   XX=           -297.1524   YY=           -257.7189   ZZ=           -261.4923
   XY=              2.6863   XZ=              7.9087   YZ=             -7.9504
 Traceless Quadrupole moment (field-independent basis, Debye-Ang):
   XX=            -25.0312   YY=             14.4023   ZZ=             10.6289
   XY=              2.6863   XZ=              7.9087   YZ=             -7.9504
 Octapole moment (field-independent basis, Debye-Ang**2):
  XXX=            335.9154  YYY=            105.6188  ZZZ=            -32.9536  XYY=            158.4883
  XXY=             56.1829  XXZ=            -25.1890  XZZ=            121.2061  YZZ=             13.1821
  YYZ=            -21.4384  XYZ=             57.8786
 Hexadecapole moment (field-independent basis, Debye-Ang**3):
 XXXX=         -23172.9127 YYYY=          -5901.5020 ZZZZ=          -4839.8283 XXXY=             88.0502
 XXXZ=           -111.8473 YYYX=             77.4438 YYYZ=             28.1141 ZZZX=            109.7548
 ZZZY=            -48.8181 XXYY=          -4738.3055 XXZZ=          -3898.9326 YYZZ=          -1739.5434
 XXYZ=           -527.0182 YYXZ=           -161.9128 ZZXY=            169.6557
 N-N= 5.643357765397D+03 E-N=-1.888740483083D+04  KE= 3.091320096063D+03
 1\1\GINC-GRA785\FOpt\RB3LYP\Gen\H18O25Si4Zr4\SARASHS\24-Jun-2020\0\\#n
  B3LYP/GEN PSEUDO=READ Opt(modredundant)\\Title\\0,1\Si,-2.8019783864,
 0.3805309344,-1.0397931808\O,-2.6192112313,-0.1700650528,0.488906063\O
 ,-3.6499830992,1.7991972272,-0.9796036982\O,-3.6597201728,-0.746887975
 1,-1.8654311046\O,-1.3250277276,0.6346911109,-1.6553524447\Zr,0.658763
 5193,0.5354581082,-1.4406977246\Si,-2.5769781482,-0.4699422675,2.08373
 31018\Si,-5.119024806,2.1799940005,-0.3291379364\Si,-4.847898645,-1.80
 0268652,-1.3627334287\O,1.4916486653,-0.9916375728,-2.2818018272\Zr,3.
 2077532407,-2.0720163432,-2.4476354951\O,1.0499454297,0.2137680965,0.5
 130016558\Zr,2.4524116709,-0.8266906823,1.4252627094\O,1.6754939798,2.
 1625406355,-1.9038769229\Zr,3.495800292,2.9010256384,-1.6130922609\O,-
 6.3460196702,1.85857339,-1.3942664\O,-5.0924575977,3.770416104,0.06290
 24436\O,-5.4482993614,1.2391770404,0.9908961474\O,-3.1598927341,-2.024
 0239237,2.2165811994\O,-3.4805083465,0.5852354671,2.9431557921\O,-0.99
 80650308,-0.4216225996,2.5719569843\O,-5.4571246568,-2.539325269,-2.69
 31952379\O,-6.0778331611,-0.9181219011,-0.6678949315\O,-4.2971010467,-
 2.8900007175,-0.2898981378\H,-6.4994074553,-0.2677778554,-1.253640784\
 H,-4.8112572114,-2.9393428657,-3.2854458486\H,-3.8725322695,-2.6131732
 636,0.5422570118\H,-4.2553225076,0.9206517499,2.449392271\H,-5.8074417
 262,0.3700760728,0.7158525286\H,-6.3760312223,2.3990375058,-2.19161928
 16\H,-4.2161670129,4.16310565,0.1393799006\H,-0.4342485799,0.013227067
 4,1.9056950603\H,-3.6347947675,-2.2426124975,3.0258557592\O,3.33215295
 6,-2.480968942,-4.3686815325\H,3.8895176257,-2.1449111515,-5.077422167
 7\O,4.6995083463,-0.858559752,-2.1547856511\H,4.8558433944,-0.06424910
 16,-1.6052442408\O,3.298749135,-3.9617909795,-1.7071580388\H,3.4045431
 692,-4.7529558079,-2.2466959334\O,4.4663874826,1.4704436562,-0.6289246
 78\H,4.489843167,1.2324307841,0.3220033337\O,4.3848687916,3.1967247536
 ,-3.3296007985\H,4.6745947637,3.8497875083,-3.9709730391\O,3.354645111
 6,4.5200652956,-0.5381497487\H,2.8638212517,5.1964555897,-0.067654733\
 O,3.0536867882,-2.1661792871,0.0676668369\H,3.1508350864,-3.1357407306
 ,-0.0182944393\O,3.9656195111,0.4037760541,1.8842200226\H,4.3456647922
 ,0.696347161,2.7197305161\O,1.6158224872,-1.5877447684,3.0025319588\H,
 0.6777659172,-1.4959966423,3.2491803502\\Version=ES64L-G16RevB.01\Stat
 e=1-A\HF=-3237.566435\RMSD=7.288e-09\RMSF=6.098e-04\Dipole=0.8520127,1
 .8092955,0.1361048\Quadrupole=-16.4752653,10.1642829,6.3109824,1.10537
 79,9.4114791,-6.1753694\PG=C01 [X(H18O25Si4Zr4)]\\@


 The mind is not a vessel to be filled but a fire to be kindled.
                                  -- Plutarch
 Job cpu time:       1 days  8 hours 22 minutes 45.9 seconds.
 Elapsed time:       0 days  2 hours  2 minutes  1.2 seconds.
 File lengths (MBytes):  RWF=    218 Int=      0 D2E=      0 Chk=     28 Scr=      1
 Normal termination of Gaussian 16 at Wed Jun 24 16:00:00 2020.
