 Entering Gaussian System, Link 0=g16
 Initial command:
 /opt/software/gaussian/g16.b01/l1.exe "/localscratch/sarashs.33453292.0/Gau-11695.inp" -scrdir="/localscratch/sarashs.33453292.0/"
 Entering Link 1 = /opt/software/gaussian/g16.b01/l1.exe PID=     11698.
  
 Copyright (c) 1988-2017, Gaussian, Inc.  All Rights Reserved.
  
 This is part of the Gaussian(R) 16 program.  It is based on
 the Gaussian(R) 09 system (copyright 2009, Gaussian, Inc.),
 the Gaussian(R) 03 system (copyright 2003, Gaussian, Inc.),
 the Gaussian(R) 98 system (copyright 1998, Gaussian, Inc.),
 the Gaussian(R) 94 system (copyright 1995, Gaussian, Inc.),
 the Gaussian 92(TM) system (copyright 1992, Gaussian, Inc.),
 the Gaussian 90(TM) system (copyright 1990, Gaussian, Inc.),
 the Gaussian 88(TM) system (copyright 1988, Gaussian, Inc.),
 the Gaussian 86(TM) system (copyright 1986, Carnegie Mellon
 University), and the Gaussian 82(TM) system (copyright 1983,
 Carnegie Mellon University). Gaussian is a federally registered
 trademark of Gaussian, Inc.
  
 This software contains proprietary and confidential information,
 including trade secrets, belonging to Gaussian, Inc.
  
 This software is provided under written license and may be
 used, copied, transmitted, or stored only in accord with that
 written license.
  
 The following legend is applicable only to US Government
 contracts under FAR:
  
                    RESTRICTED RIGHTS LEGEND
  
 Use, reproduction and disclosure by the US Government is
 subject to restrictions as set forth in subparagraphs (a)
 and (c) of the Commercial Computer Software - Restricted
 Rights clause in FAR 52.227-19.
  
 Gaussian, Inc.
 340 Quinnipiac St., Bldg. 40, Wallingford CT 06492
  
  
 ---------------------------------------------------------------
 Warning -- This program may not be used in any manner that
 competes with the business of Gaussian, Inc. or will provide
 assistance to any competitor of Gaussian, Inc.  The licensee
 of this program is prohibited from giving any competitor of
 Gaussian, Inc. access to this program.  By using this program,
 the user acknowledges that Gaussian, Inc. is engaged in the
 business of creating and licensing software in the field of
 computational chemistry and represents and warrants to the
 licensee that it is not a competitor of Gaussian, Inc. and that
 it will not use this program in any manner prohibited above.
 ---------------------------------------------------------------
  

 Cite this work as:
 Gaussian 16, Revision B.01,
 M. J. Frisch, G. W. Trucks, H. B. Schlegel, G. E. Scuseria, 
 M. A. Robb, J. R. Cheeseman, G. Scalmani, V. Barone, 
 G. A. Petersson, H. Nakatsuji, X. Li, M. Caricato, A. V. Marenich, 
 J. Bloino, B. G. Janesko, R. Gomperts, B. Mennucci, H. P. Hratchian, 
 J. V. Ortiz, A. F. Izmaylov, J. L. Sonnenberg, D. Williams-Young, 
 F. Ding, F. Lipparini, F. Egidi, J. Goings, B. Peng, A. Petrone, 
 T. Henderson, D. Ranasinghe, V. G. Zakrzewski, J. Gao, N. Rega, 
 G. Zheng, W. Liang, M. Hada, M. Ehara, K. Toyota, R. Fukuda, 
 J. Hasegawa, M. Ishida, T. Nakajima, Y. Honda, O. Kitao, H. Nakai, 
 T. Vreven, K. Throssell, J. A. Montgomery, Jr., J. E. Peralta, 
 F. Ogliaro, M. J. Bearpark, J. J. Heyd, E. N. Brothers, K. N. Kudin, 
 V. N. Staroverov, T. A. Keith, R. Kobayashi, J. Normand, 
 K. Raghavachari, A. P. Rendell, J. C. Burant, S. S. Iyengar, 
 J. Tomasi, M. Cossi, J. M. Millam, M. Klene, C. Adamo, R. Cammi, 
 J. W. Ochterski, R. L. Martin, K. Morokuma, O. Farkas, 
 J. B. Foresman, and D. J. Fox, Gaussian, Inc., Wallingford CT, 2016.
 
 ******************************************
 Gaussian 16:  ES64L-G16RevB.01 20-Dec-2017
                24-Jun-2020 
 ******************************************
 %NProcShared=16
 Will use up to   16 processors via shared memory.
 ------------------------------------------
 #n B3LYP/GEN PSEUDO=READ Opt(modredundant)
 ------------------------------------------
 1/18=120,19=15,26=3,38=1/1,3;
 2/9=110,12=2,17=6,18=5,40=1/2;
 3/5=7,11=2,16=1,17=8,25=1,30=1,71=1,74=-5/1,2,3;
 4//1;
 5/5=2,38=5/2;
 6/7=2,8=2,9=2,10=2,28=1/1;
 7//1,2,3,16;
 1/18=20,19=15,26=3/3(2);
 2/9=110/2;
 99//99;
 2/9=110/2;
 3/5=7,6=1,11=2,16=1,17=8,25=1,30=1,71=1,74=-5,82=7/1,2,3;
 4/5=5,16=3,69=1/1;
 5/5=2,38=5/2;
 7//1,2,3,16;
 1/18=20,19=15,26=3/3(-5);
 2/9=110/2;
 6/7=2,8=2,9=2,10=2,19=2,28=1/1;
 99/9=1/99;
 -----
 Title
 -----
 Symbolic Z-matrix:
 Charge =  0 Multiplicity = 1
 Si                   -2.76356   0.50373  -0.80236 
 O                    -2.64408  -0.06281   0.73154 
 O                    -3.71347   1.8573   -0.78988 
 O                    -3.46982  -0.65647  -1.71915 
 O                    -1.26704   0.87374  -1.30905 
 Zr                    0.62505   0.5692   -0.6992 
 Si                   -2.95182  -0.40071   2.29443 
 Si                   -5.29329   2.11319  -0.39088 
 Si                   -4.65193  -1.79724  -1.46558 
 O                     1.41684  -1.0356   -1.42305 
 Zr                    3.07356  -2.21795  -1.44069 
 O                     0.79234   0.24357   1.2914 
 Zr                    2.05942  -0.85234   2.33142 
 O                     1.83978   2.07604  -1.06489 
 Zr                    3.67697   2.69477  -0.63138 
 O                    -6.30259   1.76732  -1.65717 
 O                    -5.44687   3.68028   0.05984 
 O                    -5.76721   1.08545   0.81639 
 O                    -3.50601  -1.97299   2.26095 
 O                    -4.03994   0.60192   2.98173 
 O                    -1.51274  -0.31185   3.10045 
 O                    -4.9739   -2.52135  -2.90029 
 O                    -6.04082  -1.02047  -0.97357 
 O                    -4.21989  -2.88703  -0.34024 
 H                    -6.38886  -0.36717  -1.60281 
 H                    -4.21233  -2.86813  -3.37752 
 H                    -3.92943  -2.60256   0.54609 
 H                    -4.78107   0.84544   2.39047 
 H                    -6.04405   0.21773   0.45311 
 H                    -6.24075   2.34318  -2.42744 
 H                    -4.62851   4.12226   0.31086 
 H                    -0.83615   0.10482   2.53314 
 H                    -4.05643  -2.25627   2.99954 
 O                     3.31982  -2.67431  -3.33889 
 H                     3.9453   -2.38699  -4.01124 
 O                     4.60891  -1.08828  -1.05424 
 H                     4.79113  -0.32644  -0.46788 
 O                     2.98907  -4.09171  -0.66091 
 H                     3.08769  -4.90053  -1.17503 
 O                     4.45807   1.23807   0.47478 
 H                     4.35827   1.02692   1.42702 
 O                     4.73358   2.88185  -2.26594 
 H                     5.11113   3.49545  -2.90056 
 O                     3.55059   4.35117   0.38661 
 H                     3.06651   5.07983   0.77967 
 O                     2.72195  -2.23973   1.05154 
 H                     2.76661  -3.21536   0.99505 
 O                     3.58454   0.30022   2.93189 
 H                     3.89024   0.58362   3.80047 
 O                     1.04989  -1.5628    3.82897 
 H                     0.09483  -1.43728   3.97501 
 
 The following ModRedundant input section has been read:
 A       1       5       6 F                                                   
 

 GradGradGradGradGradGradGradGradGradGradGradGradGradGradGradGradGradGrad
 Berny optimization.
 Initialization pass.
                           ----------------------------
                           !    Initial Parameters    !
                           ! (Angstroms and Degrees)  !
 --------------------------                            --------------------------
 ! Name  Definition              Value          Derivative Info.                !
 --------------------------------------------------------------------------------
 ! R1    R(1,2)                  1.6395         estimate D2E/DX2                !
 ! R2    R(1,3)                  1.6537         estimate D2E/DX2                !
 ! R3    R(1,4)                  1.6387         estimate D2E/DX2                !
 ! R4    R(1,5)                  1.6227         estimate D2E/DX2                !
 ! R5    R(2,7)                  1.6283         estimate D2E/DX2                !
 ! R6    R(3,8)                  1.6494         estimate D2E/DX2                !
 ! R7    R(4,9)                  1.6622         estimate D2E/DX2                !
 ! R8    R(5,6)                  2.0111         estimate D2E/DX2                !
 ! R9    R(6,10)                 1.9304         estimate D2E/DX2                !
 ! R10   R(6,12)                 2.024          estimate D2E/DX2                !
 ! R11   R(6,14)                 1.9697         estimate D2E/DX2                !
 ! R12   R(7,19)                 1.6674         estimate D2E/DX2                !
 ! R13   R(7,20)                 1.6315         estimate D2E/DX2                !
 ! R14   R(7,21)                 1.6518         estimate D2E/DX2                !
 ! R15   R(8,16)                 1.6558         estimate D2E/DX2                !
 ! R16   R(8,17)                 1.6378         estimate D2E/DX2                !
 ! R17   R(8,18)                 1.6548         estimate D2E/DX2                !
 ! R18   R(9,22)                 1.639          estimate D2E/DX2                !
 ! R19   R(9,23)                 1.6657         estimate D2E/DX2                !
 ! R20   R(9,24)                 1.625          estimate D2E/DX2                !
 ! R21   R(10,11)                2.0354         estimate D2E/DX2                !
 ! R22   R(11,34)                1.9678         estimate D2E/DX2                !
 ! R23   R(11,36)                1.9449         estimate D2E/DX2                !
 ! R24   R(11,38)                2.0313         estimate D2E/DX2                !
 ! R25   R(12,13)                1.9718         estimate D2E/DX2                !
 ! R26   R(13,46)                2.0005         estimate D2E/DX2                !
 ! R27   R(13,48)                2.0037         estimate D2E/DX2                !
 ! R28   R(13,50)                1.9408         estimate D2E/DX2                !
 ! R29   R(14,15)                1.9865         estimate D2E/DX2                !
 ! R30   R(15,40)                1.9889         estimate D2E/DX2                !
 ! R31   R(15,42)                1.9553         estimate D2E/DX2                !
 ! R32   R(15,44)                1.9483         estimate D2E/DX2                !
 ! R33   R(16,30)                0.9637         estimate D2E/DX2                !
 ! R34   R(17,31)                0.9634         estimate D2E/DX2                !
 ! R35   R(18,29)                0.9806         estimate D2E/DX2                !
 ! R36   R(19,33)                0.9637         estimate D2E/DX2                !
 ! R37   R(20,28)                0.9789         estimate D2E/DX2                !
 ! R38   R(21,32)                0.9763         estimate D2E/DX2                !
 ! R39   R(22,26)                0.9633         estimate D2E/DX2                !
 ! R40   R(23,25)                0.9715         estimate D2E/DX2                !
 ! R41   R(24,27)                0.9751         estimate D2E/DX2                !
 ! R42   R(34,35)                0.9622         estimate D2E/DX2                !
 ! R43   R(36,37)                0.9785         estimate D2E/DX2                !
 ! R44   R(38,39)                0.9634         estimate D2E/DX2                !
 ! R45   R(40,41)                0.9805         estimate D2E/DX2                !
 ! R46   R(42,43)                0.9601         estimate D2E/DX2                !
 ! R47   R(44,45)                0.959          estimate D2E/DX2                !
 ! R48   R(46,47)                0.9783         estimate D2E/DX2                !
 ! R49   R(48,49)                0.9634         estimate D2E/DX2                !
 ! R50   R(50,51)                0.9743         estimate D2E/DX2                !
 ! A1    A(2,1,3)              108.5202         estimate D2E/DX2                !
 ! A2    A(2,1,4)              108.0696         estimate D2E/DX2                !
 ! A3    A(2,1,5)              107.6808         estimate D2E/DX2                !
 ! A4    A(3,1,4)              109.6434         estimate D2E/DX2                !
 ! A5    A(3,1,5)              110.2104         estimate D2E/DX2                !
 ! A6    A(4,1,5)              112.595          estimate D2E/DX2                !
 ! A7    A(1,2,7)              162.9195         estimate D2E/DX2                !
 ! A8    A(1,3,8)              132.766          estimate D2E/DX2                !
 ! A9    A(1,4,9)              134.9946         estimate D2E/DX2                !
 ! A10   A(1,5,6)              137.5976         Frozen                          !
 ! A11   A(5,6,10)             113.4581         estimate D2E/DX2                !
 ! A12   A(5,6,12)             113.6006         estimate D2E/DX2                !
 ! A13   A(5,6,14)             114.0827         estimate D2E/DX2                !
 ! A14   A(10,6,12)            101.6038         estimate D2E/DX2                !
 ! A15   A(10,6,14)            108.2646         estimate D2E/DX2                !
 ! A16   A(12,6,14)            104.7556         estimate D2E/DX2                !
 ! A17   A(2,7,19)             103.84           estimate D2E/DX2                !
 ! A18   A(2,7,20)             113.7575         estimate D2E/DX2                !
 ! A19   A(2,7,21)             107.0096         estimate D2E/DX2                !
 ! A20   A(19,7,20)            111.4863         estimate D2E/DX2                !
 ! A21   A(19,7,21)            110.4922         estimate D2E/DX2                !
 ! A22   A(20,7,21)            110.0253         estimate D2E/DX2                !
 ! A23   A(3,8,16)             111.4953         estimate D2E/DX2                !
 ! A24   A(3,8,17)             107.7477         estimate D2E/DX2                !
 ! A25   A(3,8,18)             110.7593         estimate D2E/DX2                !
 ! A26   A(16,8,17)            110.6802         estimate D2E/DX2                !
 ! A27   A(16,8,18)            104.6923         estimate D2E/DX2                !
 ! A28   A(17,8,18)            111.5071         estimate D2E/DX2                !
 ! A29   A(4,9,22)             108.021          estimate D2E/DX2                !
 ! A30   A(4,9,23)             108.5421         estimate D2E/DX2                !
 ! A31   A(4,9,24)             112.1363         estimate D2E/DX2                !
 ! A32   A(22,9,23)            107.505          estimate D2E/DX2                !
 ! A33   A(22,9,24)            111.2311         estimate D2E/DX2                !
 ! A34   A(23,9,24)            109.2613         estimate D2E/DX2                !
 ! A35   A(6,10,11)            145.0876         estimate D2E/DX2                !
 ! A36   A(10,11,34)           104.1783         estimate D2E/DX2                !
 ! A37   A(10,11,36)           107.6629         estimate D2E/DX2                !
 ! A38   A(10,11,38)           119.9108         estimate D2E/DX2                !
 ! A39   A(34,11,36)           103.1548         estimate D2E/DX2                !
 ! A40   A(34,11,38)            99.299          estimate D2E/DX2                !
 ! A41   A(36,11,38)           119.4943         estimate D2E/DX2                !
 ! A42   A(6,12,13)            131.3965         estimate D2E/DX2                !
 ! A43   A(12,13,46)           105.1187         estimate D2E/DX2                !
 ! A44   A(12,13,48)           109.1153         estimate D2E/DX2                !
 ! A45   A(12,13,50)           106.0327         estimate D2E/DX2                !
 ! A46   A(46,13,48)           109.79           estimate D2E/DX2                !
 ! A47   A(46,13,50)           114.335          estimate D2E/DX2                !
 ! A48   A(48,13,50)           112.0399         estimate D2E/DX2                !
 ! A49   A(6,14,15)            140.185          estimate D2E/DX2                !
 ! A50   A(14,15,40)           104.8604         estimate D2E/DX2                !
 ! A51   A(14,15,42)           110.3126         estimate D2E/DX2                !
 ! A52   A(14,15,44)           108.5928         estimate D2E/DX2                !
 ! A53   A(40,15,42)           108.8316         estimate D2E/DX2                !
 ! A54   A(40,15,44)           110.9503         estimate D2E/DX2                !
 ! A55   A(42,15,44)           112.9855         estimate D2E/DX2                !
 ! A56   A(8,16,30)            116.5711         estimate D2E/DX2                !
 ! A57   A(8,17,31)            115.5324         estimate D2E/DX2                !
 ! A58   A(8,18,29)            111.1097         estimate D2E/DX2                !
 ! A59   A(7,19,33)            116.8474         estimate D2E/DX2                !
 ! A60   A(7,20,28)            113.7913         estimate D2E/DX2                !
 ! A61   A(7,21,32)            110.0697         estimate D2E/DX2                !
 ! A62   A(9,22,26)            115.9371         estimate D2E/DX2                !
 ! A63   A(9,23,25)            114.8968         estimate D2E/DX2                !
 ! A64   A(9,24,27)            120.8639         estimate D2E/DX2                !
 ! A65   A(11,34,35)           133.327          estimate D2E/DX2                !
 ! A66   A(11,36,37)           135.9148         estimate D2E/DX2                !
 ! A67   A(11,38,39)           124.4224         estimate D2E/DX2                !
 ! A68   A(15,40,41)           131.1412         estimate D2E/DX2                !
 ! A69   A(15,42,43)           145.7118         estimate D2E/DX2                !
 ! A70   A(15,44,45)           153.2298         estimate D2E/DX2                !
 ! A71   A(13,46,47)           138.0487         estimate D2E/DX2                !
 ! A72   A(13,48,49)           132.9128         estimate D2E/DX2                !
 ! A73   A(13,50,51)           125.3389         estimate D2E/DX2                !
 ! D1    D(3,1,2,7)             26.3443         estimate D2E/DX2                !
 ! D2    D(4,1,2,7)            -92.4856         estimate D2E/DX2                !
 ! D3    D(5,1,2,7)            145.6313         estimate D2E/DX2                !
 ! D4    D(2,1,3,8)            -62.7632         estimate D2E/DX2                !
 ! D5    D(4,1,3,8)             55.0697         estimate D2E/DX2                !
 ! D6    D(5,1,3,8)            179.5501         estimate D2E/DX2                !
 ! D7    D(2,1,4,9)             35.4977         estimate D2E/DX2                !
 ! D8    D(3,1,4,9)            -82.6158         estimate D2E/DX2                !
 ! D9    D(5,1,4,9)            154.3011         estimate D2E/DX2                !
 ! D10   D(2,1,5,6)             11.821          estimate D2E/DX2                !
 ! D11   D(3,1,5,6)            130.0249         estimate D2E/DX2                !
 ! D12   D(4,1,5,6)           -107.2094         estimate D2E/DX2                !
 ! D13   D(1,2,7,19)           100.9483         estimate D2E/DX2                !
 ! D14   D(1,2,7,20)           -20.4241         estimate D2E/DX2                !
 ! D15   D(1,2,7,21)          -142.1534         estimate D2E/DX2                !
 ! D16   D(1,3,8,16)           -83.6614         estimate D2E/DX2                !
 ! D17   D(1,3,8,17)           154.7            estimate D2E/DX2                !
 ! D18   D(1,3,8,18)            32.4929         estimate D2E/DX2                !
 ! D19   D(1,4,9,22)           173.7129         estimate D2E/DX2                !
 ! D20   D(1,4,9,23)            57.4339         estimate D2E/DX2                !
 ! D21   D(1,4,9,24)           -63.3679         estimate D2E/DX2                !
 ! D22   D(1,5,6,10)            91.0977         estimate D2E/DX2                !
 ! D23   D(1,5,6,12)           -24.2981         estimate D2E/DX2                !
 ! D24   D(1,5,6,14)          -144.2796         estimate D2E/DX2                !
 ! D25   D(5,6,10,11)         -177.8681         estimate D2E/DX2                !
 ! D26   D(12,6,10,11)         -55.5486         estimate D2E/DX2                !
 ! D27   D(14,6,10,11)          54.4242         estimate D2E/DX2                !
 ! D28   D(5,6,12,13)          148.1498         estimate D2E/DX2                !
 ! D29   D(10,6,12,13)          25.9286         estimate D2E/DX2                !
 ! D30   D(14,6,12,13)         -86.7114         estimate D2E/DX2                !
 ! D31   D(5,6,14,15)          169.9959         estimate D2E/DX2                !
 ! D32   D(10,6,14,15)         -62.6546         estimate D2E/DX2                !
 ! D33   D(12,6,14,15)          45.1615         estimate D2E/DX2                !
 ! D34   D(2,7,19,33)         -156.8425         estimate D2E/DX2                !
 ! D35   D(20,7,19,33)         -33.9627         estimate D2E/DX2                !
 ! D36   D(21,7,19,33)          88.7198         estimate D2E/DX2                !
 ! D37   D(2,7,20,28)           39.0047         estimate D2E/DX2                !
 ! D38   D(19,7,20,28)         -78.0052         estimate D2E/DX2                !
 ! D39   D(21,7,20,28)         159.0451         estimate D2E/DX2                !
 ! D40   D(2,7,21,32)           12.2859         estimate D2E/DX2                !
 ! D41   D(19,7,21,32)         124.7052         estimate D2E/DX2                !
 ! D42   D(20,7,21,32)        -111.7631         estimate D2E/DX2                !
 ! D43   D(3,8,16,30)          -66.936          estimate D2E/DX2                !
 ! D44   D(17,8,16,30)          52.9866         estimate D2E/DX2                !
 ! D45   D(18,8,16,30)         173.2574         estimate D2E/DX2                !
 ! D46   D(3,8,17,31)          -19.3558         estimate D2E/DX2                !
 ! D47   D(16,8,17,31)        -141.4996         estimate D2E/DX2                !
 ! D48   D(18,8,17,31)         102.3883         estimate D2E/DX2                !
 ! D49   D(3,8,18,29)          -84.4645         estimate D2E/DX2                !
 ! D50   D(16,8,18,29)          35.8337         estimate D2E/DX2                !
 ! D51   D(17,8,18,29)         155.5519         estimate D2E/DX2                !
 ! D52   D(4,9,22,26)           52.0376         estimate D2E/DX2                !
 ! D53   D(23,9,22,26)         168.99           estimate D2E/DX2                !
 ! D54   D(24,9,22,26)         -71.4318         estimate D2E/DX2                !
 ! D55   D(4,9,23,25)           59.2735         estimate D2E/DX2                !
 ! D56   D(22,9,23,25)         -57.3378         estimate D2E/DX2                !
 ! D57   D(24,9,23,25)        -178.1643         estimate D2E/DX2                !
 ! D58   D(4,9,24,27)           54.0597         estimate D2E/DX2                !
 ! D59   D(22,9,24,27)         175.1468         estimate D2E/DX2                !
 ! D60   D(23,9,24,27)         -66.3256         estimate D2E/DX2                !
 ! D61   D(6,10,11,34)        -136.8771         estimate D2E/DX2                !
 ! D62   D(6,10,11,36)         -27.8028         estimate D2E/DX2                !
 ! D63   D(6,10,11,38)         113.3917         estimate D2E/DX2                !
 ! D64   D(10,11,34,35)        105.9349         estimate D2E/DX2                !
 ! D65   D(36,11,34,35)         -6.4253         estimate D2E/DX2                !
 ! D66   D(38,11,34,35)       -129.8339         estimate D2E/DX2                !
 ! D67   D(10,11,36,37)         37.7975         estimate D2E/DX2                !
 ! D68   D(34,11,36,37)        147.5774         estimate D2E/DX2                !
 ! D69   D(38,11,36,37)       -103.5874         estimate D2E/DX2                !
 ! D70   D(10,11,38,39)        114.2536         estimate D2E/DX2                !
 ! D71   D(34,11,38,39)          1.8867         estimate D2E/DX2                !
 ! D72   D(36,11,38,39)       -109.0642         estimate D2E/DX2                !
 ! D73   D(6,12,13,46)         -23.77           estimate D2E/DX2                !
 ! D74   D(6,12,13,48)          93.9282         estimate D2E/DX2                !
 ! D75   D(6,12,13,50)        -145.2202         estimate D2E/DX2                !
 ! D76   D(12,13,46,47)       -123.8176         estimate D2E/DX2                !
 ! D77   D(48,13,46,47)        118.9425         estimate D2E/DX2                !
 ! D78   D(50,13,46,47)         -7.9578         estimate D2E/DX2                !
 ! D79   D(12,13,48,49)        115.0451         estimate D2E/DX2                !
 ! D80   D(46,13,48,49)       -130.2418         estimate D2E/DX2                !
 ! D81   D(50,13,48,49)         -2.062          estimate D2E/DX2                !
 ! D82   D(12,13,50,51)          3.8984         estimate D2E/DX2                !
 ! D83   D(46,13,50,51)       -111.4295         estimate D2E/DX2                !
 ! D84   D(48,13,50,51)        122.8401         estimate D2E/DX2                !
 ! D85   D(6,14,15,40)           2.4023         estimate D2E/DX2                !
 ! D86   D(6,14,15,42)         119.4236         estimate D2E/DX2                !
 ! D87   D(6,14,15,44)        -116.2545         estimate D2E/DX2                !
 ! D88   D(14,15,40,41)        -80.6706         estimate D2E/DX2                !
 ! D89   D(42,15,40,41)        161.2977         estimate D2E/DX2                !
 ! D90   D(44,15,40,41)         36.3824         estimate D2E/DX2                !
 ! D91   D(14,15,42,43)        104.4337         estimate D2E/DX2                !
 ! D92   D(40,15,42,43)       -141.0356         estimate D2E/DX2                !
 ! D93   D(44,15,42,43)        -17.3233         estimate D2E/DX2                !
 ! D94   D(14,15,44,45)         -4.8194         estimate D2E/DX2                !
 ! D95   D(40,15,44,45)       -119.5617         estimate D2E/DX2                !
 ! D96   D(42,15,44,45)        117.9008         estimate D2E/DX2                !
 --------------------------------------------------------------------------------
 Trust Radius=3.00D-01 FncErr=1.00D-07 GrdErr=1.00D-06 EigMax=2.50D+02 EigMin=1.00D-04
 Number of steps in this run=    229 maximum allowed number of steps=    306.
 GradGradGradGradGradGradGradGradGradGradGradGradGradGradGradGradGradGrad

 Stoichiometry    H18O25Si4Zr4
 Framework group  C1[X(H18O25Si4Zr4)]
 Deg. of freedom   147
 Full point group                 C1      NOp   1
 Largest Abelian subgroup         C1      NOp   1
 Largest concise Abelian subgroup C1      NOp   1
                         Standard orientation:                         
 ---------------------------------------------------------------------
 Center     Atomic      Atomic             Coordinates (Angstroms)
 Number     Number       Type             X           Y           Z
 ---------------------------------------------------------------------
      1         14           0       -2.769237    0.503990   -0.789223
      2          8           0       -2.662941   -0.067084    0.743966
      3          8           0       -3.718272    1.858204   -0.780724
      4          8           0       -3.468642   -0.653035   -1.715235
      5          8           0       -1.268287    0.874386   -1.282348
      6         40           0        0.618441    0.566711   -0.657642
      7         14           0       -2.983932   -0.409293    2.303249
      8         14           0       -5.301183    2.114078   -0.394159
      9         14           0       -4.653621   -1.793681   -1.474840
     10          8           0        1.415115   -1.036555   -1.379531
     11         40           0        3.071098   -2.220046   -1.386803
     12          8           0        0.768907    0.235187    1.333328
     13         40           0        2.026509   -0.864651    2.380680
     14          8           0        1.837229    2.073727   -1.008816
     15         40           0        3.671174    2.689868   -0.558216
     16          8           0       -6.300136    1.772612   -1.669815
     17          8           0       -5.457419    3.679964    0.059819
     18          8           0       -5.785866    1.083183    0.806127
     19          8           0       -3.538922   -1.981069    2.260582
     20          8           0       -4.077042    0.592125    2.984370
     21          8           0       -1.551558   -0.323812    3.121486
     22          8           0       -4.964128   -2.513393   -2.914282
     23          8           0       -6.046020   -1.017338   -0.992164
     24          8           0       -4.231736   -2.887043   -0.349112
     25          1           0       -6.388347   -0.361964   -1.622381
     26          1           0       -4.198849   -2.859338   -3.386156
     27          1           0       -3.948475   -2.605355    0.540431
     28          1           0       -4.813048    0.837895    2.387665
     29          1           0       -6.060275    0.216721    0.438032
     30          1           0       -6.231476    2.350659   -2.437866
     31          1           0       -4.640871    4.120623    0.318932
     32          1           0       -0.869972    0.094012    2.561047
     33          1           0       -4.095676   -2.266092    2.993733
     34          8           0        3.332851   -2.671075   -3.284203
     35          1           0        3.964113   -2.382258   -3.950480
     36          8           0        4.603963   -1.092612   -0.984291
     37          1           0        4.781821   -0.332608   -0.394221
     38          8           0        2.978803   -4.095998   -0.613204
     39          1           0        3.081139   -4.903395   -1.128833
     40          8           0        4.442010    1.229401    0.550175
     41          1           0        4.334129    1.015562    1.500933
     42          8           0        4.741501    2.880925   -2.183365
     43          1           0        5.124756    3.496091   -2.813030
     44          8           0        3.537471    4.343399    0.463496
     45          1           0        3.050641    5.071266    0.854625
     46          8           0        2.698714   -2.248801    1.102337
     47          1           0        2.743161   -3.224295    1.043386
     48          8           0        3.547376    0.285059    2.997185
     49          1           0        3.846025    0.565717    3.869102
     50          8           0        1.004037   -1.578722    3.867695
     51          1           0        0.047881   -1.452936    4.006136
 ---------------------------------------------------------------------
 Rotational constants (GHZ):           0.0869491           0.0385832           0.0364321
 General basis read from cards:  (5D, 7F)
 ======================================================================================================
                                       Pseudopotential Parameters
 ======================================================================================================
  Center     Atomic      Valence      Angular      Power
  Number     Number     Electrons     Momentum     of R      Exponent        Coefficient   SO-Coeffient
 ======================================================================================================
    1         14
                                   No pseudopotential on this center.
    2          8
                                   No pseudopotential on this center.
    3          8
                                   No pseudopotential on this center.
    4          8
                                   No pseudopotential on this center.
    5          8
                                   No pseudopotential on this center.
    6         40           12
                                      F and up 
                                                     0      645.9321873       -0.04258430    0.00000000
                                                     1      134.7547401      -20.22224090    0.00000000
                                                     2       42.3074619     -101.86951720    0.00000000
                                                     2       12.0003227      -41.61957840    0.00000000
                                                     2        4.1260454       -4.69861600    0.00000000
                                      S - F
                                                     0      117.6251862        2.79105590    0.00000000
                                                     1       22.9646089       41.94894590    0.00000000
                                                     2        4.5225298       67.72718660    0.00000000
                                      P - F
                                                     0       47.1953145        4.99111440    0.00000000
                                                     1       48.0356033       20.71931720    0.00000000
                                                     2       19.4541456      195.58677580    0.00000000
                                                     2        4.0512875       48.28771760    0.00000000
                                      D - F
                                                     0       79.9073983        3.00492260    0.00000000
                                                     1       45.8263798       25.93779890    0.00000000
                                                     2       26.9903522      125.12449340    0.00000000
                                                     2        9.6835718       70.76340220    0.00000000
                                                     2        2.7995666       15.04928220    0.00000000
    7         14
                                   No pseudopotential on this center.
    8         14
                                   No pseudopotential on this center.
    9         14
                                   No pseudopotential on this center.
   10          8
                                   No pseudopotential on this center.
   11         40           12
                                      F and up 
                                                     0      645.9321873       -0.04258430    0.00000000
                                                     1      134.7547401      -20.22224090    0.00000000
                                                     2       42.3074619     -101.86951720    0.00000000
                                                     2       12.0003227      -41.61957840    0.00000000
                                                     2        4.1260454       -4.69861600    0.00000000
                                      S - F
                                                     0      117.6251862        2.79105590    0.00000000
                                                     1       22.9646089       41.94894590    0.00000000
                                                     2        4.5225298       67.72718660    0.00000000
                                      P - F
                                                     0       47.1953145        4.99111440    0.00000000
                                                     1       48.0356033       20.71931720    0.00000000
                                                     2       19.4541456      195.58677580    0.00000000
                                                     2        4.0512875       48.28771760    0.00000000
                                      D - F
                                                     0       79.9073983        3.00492260    0.00000000
                                                     1       45.8263798       25.93779890    0.00000000
                                                     2       26.9903522      125.12449340    0.00000000
                                                     2        9.6835718       70.76340220    0.00000000
                                                     2        2.7995666       15.04928220    0.00000000
   12          8
                                   No pseudopotential on this center.
   13         40           12
                                      F and up 
                                                     0      645.9321873       -0.04258430    0.00000000
                                                     1      134.7547401      -20.22224090    0.00000000
                                                     2       42.3074619     -101.86951720    0.00000000
                                                     2       12.0003227      -41.61957840    0.00000000
                                                     2        4.1260454       -4.69861600    0.00000000
                                      S - F
                                                     0      117.6251862        2.79105590    0.00000000
                                                     1       22.9646089       41.94894590    0.00000000
                                                     2        4.5225298       67.72718660    0.00000000
                                      P - F
                                                     0       47.1953145        4.99111440    0.00000000
                                                     1       48.0356033       20.71931720    0.00000000
                                                     2       19.4541456      195.58677580    0.00000000
                                                     2        4.0512875       48.28771760    0.00000000
                                      D - F
                                                     0       79.9073983        3.00492260    0.00000000
                                                     1       45.8263798       25.93779890    0.00000000
                                                     2       26.9903522      125.12449340    0.00000000
                                                     2        9.6835718       70.76340220    0.00000000
                                                     2        2.7995666       15.04928220    0.00000000
   14          8
                                   No pseudopotential on this center.
   15         40           12
                                      F and up 
                                                     0      645.9321873       -0.04258430    0.00000000
                                                     1      134.7547401      -20.22224090    0.00000000
                                                     2       42.3074619     -101.86951720    0.00000000
                                                     2       12.0003227      -41.61957840    0.00000000
                                                     2        4.1260454       -4.69861600    0.00000000
                                      S - F
                                                     0      117.6251862        2.79105590    0.00000000
                                                     1       22.9646089       41.94894590    0.00000000
                                                     2        4.5225298       67.72718660    0.00000000
                                      P - F
                                                     0       47.1953145        4.99111440    0.00000000
                                                     1       48.0356033       20.71931720    0.00000000
                                                     2       19.4541456      195.58677580    0.00000000
                                                     2        4.0512875       48.28771760    0.00000000
                                      D - F
                                                     0       79.9073983        3.00492260    0.00000000
                                                     1       45.8263798       25.93779890    0.00000000
                                                     2       26.9903522      125.12449340    0.00000000
                                                     2        9.6835718       70.76340220    0.00000000
                                                     2        2.7995666       15.04928220    0.00000000
   16          8
                                   No pseudopotential on this center.
   17          8
                                   No pseudopotential on this center.
   18          8
                                   No pseudopotential on this center.
   19          8
                                   No pseudopotential on this center.
   20          8
                                   No pseudopotential on this center.
   21          8
                                   No pseudopotential on this center.
   22          8
                                   No pseudopotential on this center.
   23          8
                                   No pseudopotential on this center.
   24          8
                                   No pseudopotential on this center.
   25          1
                                   No pseudopotential on this center.
   26          1
                                   No pseudopotential on this center.
   27          1
                                   No pseudopotential on this center.
   28          1
                                   No pseudopotential on this center.
   29          1
                                   No pseudopotential on this center.
   30          1
                                   No pseudopotential on this center.
   31          1
                                   No pseudopotential on this center.
   32          1
                                   No pseudopotential on this center.
   33          1
                                   No pseudopotential on this center.
   34          8
                                   No pseudopotential on this center.
   35          1
                                   No pseudopotential on this center.
   36          8
                                   No pseudopotential on this center.
   37          1
                                   No pseudopotential on this center.
   38          8
                                   No pseudopotential on this center.
   39          1
                                   No pseudopotential on this center.
   40          8
                                   No pseudopotential on this center.
   41          1
                                   No pseudopotential on this center.
   42          8
                                   No pseudopotential on this center.
   43          1
                                   No pseudopotential on this center.
   44          8
                                   No pseudopotential on this center.
   45          1
                                   No pseudopotential on this center.
   46          8
                                   No pseudopotential on this center.
   47          1
                                   No pseudopotential on this center.
   48          8
                                   No pseudopotential on this center.
   49          1
                                   No pseudopotential on this center.
   50          8
                                   No pseudopotential on this center.
   51          1
                                   No pseudopotential on this center.
 ======================================================================================================
 There are   637 symmetry adapted cartesian basis functions of A   symmetry.
 There are   600 symmetry adapted basis functions of A   symmetry.
   600 basis functions,  1230 primitive gaussians,   637 cartesian basis functions
   161 alpha electrons      161 beta electrons
       nuclear repulsion energy      5661.7680068878 Hartrees.
 NAtoms=   51 NActive=   51 NUniq=   51 SFac= 1.00D+00 NAtFMM=   60 NAOKFM=F Big=F
 Integral buffers will be    131072 words long.
 Raffenetti 2 integral format.
 Two-electron integral symmetry is turned on.
 One-electron integrals computed using PRISM.
   1 Symmetry operations used in ECPInt.
 ECPInt:  NShTT=   21321 NPrTT=  126439 LenC2=   15399 LenP2D=   51739.
 LDataN:  DoStor=T MaxTD1= 5 Len=  102
 Number of processors reduced to  12 by ecpmxn.
 NBasis=   600 RedAO= T EigKep=  2.63D-03  NBF=   600
 NBsUse=   600 1.00D-06 EigRej= -1.00D+00 NBFU=   600
 Defaulting to unpruned grid for atomic number  40.
 Defaulting to unpruned grid for atomic number  40.
 Defaulting to unpruned grid for atomic number  40.
 ExpMin= 2.43D-02 ExpMax= 1.61D+04 ExpMxC= 2.43D+03 IAcc=3 IRadAn=         5 AccDes= 0.00D+00
 Harris functional with IExCor=  402 and IRadAn=       5 diagonalized for initial guess.
 HarFok:  IExCor=  402 AccDes= 0.00D+00 IRadAn=         5 IDoV= 1 UseB2=F ITyADJ=14
 ICtDFT=  3500011 ScaDFX=  1.000000  1.000000  1.000000  1.000000
 Defaulting to unpruned grid for atomic number  40.
 FoFCou: FMM=F IPFlag=           0 FMFlag=      100000 FMFlg1=           0
         NFxFlg=           0 DoJE=T BraDBF=F KetDBF=T FulRan=T
         wScrn=  0.000000 ICntrl=       500 IOpCl=  0 I1Cent=   200000004 NGrid=           0
         NMat0=    1 NMatS0=      1 NMatT0=    0 NMatD0=    1 NMtDS0=    0 NMtDT0=    0
 Petite list used in FoFCou.
 Requested convergence on RMS density matrix=1.00D-08 within 128 cycles.
 Requested convergence on MAX density matrix=1.00D-06.
 Requested convergence on             energy=1.00D-06.
 No special actions if energy rises.
 Defaulting to unpruned grid for atomic number  40.
 Defaulting to unpruned grid for atomic number  40.
 Defaulting to unpruned grid for atomic number  40.
 Defaulting to unpruned grid for atomic number  40.
 Defaulting to unpruned grid for atomic number  40.
 Defaulting to unpruned grid for atomic number  40.
 Defaulting to unpruned grid for atomic number  40.
 Defaulting to unpruned grid for atomic number  40.
 Defaulting to unpruned grid for atomic number  40.
 Defaulting to unpruned grid for atomic number  40.
 Defaulting to unpruned grid for atomic number  40.
 Defaulting to unpruned grid for atomic number  40.
 Defaulting to unpruned grid for atomic number  40.
 Defaulting to unpruned grid for atomic number  40.
 Defaulting to unpruned grid for atomic number  40.
 Defaulting to unpruned grid for atomic number  40.
 SCF Done:  E(RB3LYP) =  -3237.56743159     A.U. after   17 cycles
            NFock= 17  Conv=0.52D-08     -V/T= 2.0473

 **********************************************************************

            Population analysis using the SCF Density.

 **********************************************************************

 Orbital symmetries:
       Occupied  (A) (A) (A) (A) (A) (A) (A) (A) (A) (A) (A) (A)
                 (A) (A) (A) (A) (A) (A) (A) (A) (A) (A) (A) (A)
                 (A) (A) (A) (A) (A) (A) (A) (A) (A) (A) (A) (A)
                 (A) (A) (A) (A) (A) (A) (A) (A) (A) (A) (A) (A)
                 (A) (A) (A) (A) (A) (A) (A) (A) (A) (A) (A) (A)
                 (A) (A) (A) (A) (A) (A) (A) (A) (A) (A) (A) (A)
                 (A) (A) (A) (A) (A) (A) (A) (A) (A) (A) (A) (A)
                 (A) (A) (A) (A) (A) (A) (A) (A) (A) (A) (A) (A)
                 (A) (A) (A) (A) (A) (A) (A) (A) (A) (A) (A) (A)
                 (A) (A) (A) (A) (A) (A) (A) (A) (A) (A) (A) (A)
                 (A) (A) (A) (A) (A) (A) (A) (A) (A) (A) (A) (A)
                 (A) (A) (A) (A) (A) (A) (A) (A) (A) (A) (A) (A)
                 (A) (A) (A) (A) (A) (A) (A) (A) (A) (A) (A) (A)
                 (A) (A) (A) (A) (A)
       Virtual   (A) (A) (A) (A) (A) (A) (A) (A) (A) (A) (A) (A)
                 (A) (A) (A) (A) (A) (A) (A) (A) (A) (A) (A) (A)
                 (A) (A) (A) (A) (A) (A) (A) (A) (A) (A) (A) (A)
                 (A) (A) (A) (A) (A) (A) (A) (A) (A) (A) (A) (A)
                 (A) (A) (A) (A) (A) (A) (A) (A) (A) (A) (A) (A)
                 (A) (A) (A) (A) (A) (A) (A) (A) (A) (A) (A) (A)
                 (A) (A) (A) (A) (A) (A) (A) (A) (A) (A) (A) (A)
                 (A) (A) (A) (A) (A) (A) (A) (A) (A) (A) (A) (A)
                 (A) (A) (A) (A) (A) (A) (A) (A) (A) (A) (A) (A)
                 (A) (A) (A) (A) (A) (A) (A) (A) (A) (A) (A) (A)
                 (A) (A) (A) (A) (A) (A) (A) (A) (A) (A) (A) (A)
                 (A) (A) (A) (A) (A) (A) (A) (A) (A) (A) (A) (A)
                 (A) (A) (A) (A) (A) (A) (A) (A) (A) (A) (A) (A)
                 (A) (A) (A) (A) (A) (A) (A) (A) (A) (A) (A) (A)
                 (A) (A) (A) (A) (A) (A) (A) (A) (A) (A) (A) (A)
                 (A) (A) (A) (A) (A) (A) (A) (A) (A) (A) (A) (A)
                 (A) (A) (A) (A) (A) (A) (A) (A) (A) (A) (A) (A)
                 (A) (A) (A) (A) (A) (A) (A) (A) (A) (A) (A) (A)
                 (A) (A) (A) (A) (A) (A) (A) (A) (A) (A) (A) (A)
                 (A) (A) (A) (A) (A) (A) (A) (A) (A) (A) (A) (A)
                 (A) (A) (A) (A) (A) (A) (A) (A) (A) (A) (A) (A)
                 (A) (A) (A) (A) (A) (A) (A) (A) (A) (A) (A) (A)
                 (A) (A) (A) (A) (A) (A) (A) (A) (A) (A) (A) (A)
                 (A) (A) (A) (A) (A) (A) (A) (A) (A) (A) (A) (A)
                 (A) (A) (A) (A) (A) (A) (A) (A) (A) (A) (A) (A)
                 (A) (A) (A) (A) (A) (A) (A) (A) (A) (A) (A) (A)
                 (A) (A) (A) (A) (A) (A) (A) (A) (A) (A) (A) (A)
                 (A) (A) (A) (A) (A) (A) (A) (A) (A) (A) (A) (A)
                 (A) (A) (A) (A) (A) (A) (A) (A) (A) (A) (A) (A)
                 (A) (A) (A) (A) (A) (A) (A) (A) (A) (A) (A) (A)
                 (A) (A) (A) (A) (A) (A) (A) (A) (A) (A) (A) (A)
                 (A) (A) (A) (A) (A) (A) (A) (A) (A) (A) (A) (A)
                 (A) (A) (A) (A) (A) (A) (A) (A) (A) (A) (A) (A)
                 (A) (A) (A) (A) (A) (A) (A) (A) (A) (A) (A) (A)
                 (A) (A) (A) (A) (A) (A) (A) (A) (A) (A) (A) (A)
                 (A) (A) (A) (A) (A) (A) (A) (A) (A) (A) (A) (A)
                 (A) (A) (A) (A) (A) (A) (A)
 The electronic state is 1-A.
 Alpha  occ. eigenvalues --  -66.22053 -66.21841 -66.21345 -66.20190 -19.17098
 Alpha  occ. eigenvalues --  -19.17034 -19.16414 -19.16352 -19.16138 -19.16030
 Alpha  occ. eigenvalues --  -19.15953 -19.15835 -19.15751 -19.15714 -19.15532
 Alpha  occ. eigenvalues --  -19.15262 -19.15123 -19.14683 -19.14570 -19.14289
 Alpha  occ. eigenvalues --  -19.14281 -19.14265 -19.14229 -19.14102 -19.13384
 Alpha  occ. eigenvalues --  -19.13184 -19.12578 -19.12134 -19.11638  -5.36073
 Alpha  occ. eigenvalues --   -5.36012  -5.35539  -5.34399  -3.72042  -3.72036
 Alpha  occ. eigenvalues --   -3.72013  -3.71981  -3.71971  -3.71905  -3.71603
 Alpha  occ. eigenvalues --   -3.71456  -3.71381  -3.70394  -3.70347  -3.70275
 Alpha  occ. eigenvalues --   -2.08291  -2.06927  -2.06808  -2.05085  -1.29353
 Alpha  occ. eigenvalues --   -1.28943  -1.28547  -1.27971  -1.27741  -1.27682
 Alpha  occ. eigenvalues --   -1.27177  -1.27141  -1.26734  -1.25729  -1.25477
 Alpha  occ. eigenvalues --   -1.25137  -1.05278  -1.04310  -1.03072  -1.01925
 Alpha  occ. eigenvalues --   -1.01423  -1.01162  -1.00946  -0.99748  -0.99458
 Alpha  occ. eigenvalues --   -0.98752  -0.98536  -0.98373  -0.97924  -0.97450
 Alpha  occ. eigenvalues --   -0.96691  -0.96458  -0.95479  -0.95039  -0.94968
 Alpha  occ. eigenvalues --   -0.93895  -0.93673  -0.92089  -0.91140  -0.89522
 Alpha  occ. eigenvalues --   -0.88436  -0.61653  -0.59582  -0.58796  -0.55873
 Alpha  occ. eigenvalues --   -0.54402  -0.53560  -0.52308  -0.52112  -0.51452
 Alpha  occ. eigenvalues --   -0.51386  -0.51068  -0.51007  -0.50774  -0.50161
 Alpha  occ. eigenvalues --   -0.50124  -0.49145  -0.48874  -0.47759  -0.46763
 Alpha  occ. eigenvalues --   -0.45632  -0.45557  -0.44792  -0.42787  -0.42027
 Alpha  occ. eigenvalues --   -0.41428  -0.41374  -0.40554  -0.40372  -0.40207
 Alpha  occ. eigenvalues --   -0.39681  -0.39529  -0.39187  -0.38957  -0.38425
 Alpha  occ. eigenvalues --   -0.37870  -0.37521  -0.37356  -0.37180  -0.36841
 Alpha  occ. eigenvalues --   -0.36671  -0.36135  -0.35943  -0.35738  -0.35613
 Alpha  occ. eigenvalues --   -0.35421  -0.35209  -0.35101  -0.34951  -0.34895
 Alpha  occ. eigenvalues --   -0.34649  -0.34315  -0.34283  -0.34115  -0.34030
 Alpha  occ. eigenvalues --   -0.33812  -0.33473  -0.33405  -0.33175  -0.33037
 Alpha  occ. eigenvalues --   -0.32860  -0.32571  -0.32515  -0.32235  -0.31957
 Alpha  occ. eigenvalues --   -0.31781  -0.31642  -0.31466  -0.31139  -0.30998
 Alpha  occ. eigenvalues --   -0.30805  -0.30741  -0.30200  -0.29525  -0.29141
 Alpha  occ. eigenvalues --   -0.28619
 Alpha virt. eigenvalues --   -0.05229  -0.04774  -0.04422  -0.03438  -0.02869
 Alpha virt. eigenvalues --   -0.02697  -0.01906  -0.01598  -0.01328  -0.01108
 Alpha virt. eigenvalues --   -0.00665  -0.00593  -0.00358   0.00038   0.00522
 Alpha virt. eigenvalues --    0.00660   0.00922   0.01380   0.01511   0.01809
 Alpha virt. eigenvalues --    0.02333   0.02476   0.02777   0.02955   0.03208
 Alpha virt. eigenvalues --    0.03772   0.04085   0.04195   0.05006   0.05414
 Alpha virt. eigenvalues --    0.05732   0.05838   0.06226   0.06561   0.07123
 Alpha virt. eigenvalues --    0.08117   0.08286   0.08689   0.09520   0.10245
 Alpha virt. eigenvalues --    0.10489   0.11165   0.11866   0.12443   0.12836
 Alpha virt. eigenvalues --    0.13455   0.13899   0.14590   0.15004   0.15236
 Alpha virt. eigenvalues --    0.15811   0.16262   0.16541   0.16616   0.16925
 Alpha virt. eigenvalues --    0.17544   0.17996   0.18131   0.18358   0.18689
 Alpha virt. eigenvalues --    0.19165   0.19425   0.19676   0.20234   0.20711
 Alpha virt. eigenvalues --    0.20938   0.21265   0.21508   0.22190   0.22250
 Alpha virt. eigenvalues --    0.22521   0.22761   0.22875   0.23338   0.24113
 Alpha virt. eigenvalues --    0.24214   0.24448   0.24687   0.25052   0.25648
 Alpha virt. eigenvalues --    0.25914   0.26632   0.26797   0.27454   0.27564
 Alpha virt. eigenvalues --    0.28272   0.28663   0.29334   0.29979   0.30087
 Alpha virt. eigenvalues --    0.30521   0.31136   0.31200   0.32011   0.32637
 Alpha virt. eigenvalues --    0.33283   0.33641   0.34108   0.34553   0.35191
 Alpha virt. eigenvalues --    0.36026   0.36639   0.36880   0.37517   0.37869
 Alpha virt. eigenvalues --    0.38395   0.39521   0.40825   0.41226   0.41794
 Alpha virt. eigenvalues --    0.42217   0.44548   0.45096   0.46514   0.46917
 Alpha virt. eigenvalues --    0.49285   0.49913   0.52024   0.55477   0.56415
 Alpha virt. eigenvalues --    0.58101   0.59593   0.60477   0.64640   0.66561
 Alpha virt. eigenvalues --    0.67255   0.76594   0.76844   0.78724   0.79639
 Alpha virt. eigenvalues --    0.80214   0.80991   0.81136   0.82093   0.83656
 Alpha virt. eigenvalues --    0.83876   0.84225   0.84929   0.85901   0.86484
 Alpha virt. eigenvalues --    0.86944   0.87732   0.88915   0.89612   0.90374
 Alpha virt. eigenvalues --    0.90654   0.91711   0.92171   0.92370   0.93208
 Alpha virt. eigenvalues --    0.93293   0.93937   0.94421   0.94899   0.95536
 Alpha virt. eigenvalues --    0.96325   0.96501   0.96742   0.97403   0.97498
 Alpha virt. eigenvalues --    0.97648   0.98094   0.98362   0.98603   0.99241
 Alpha virt. eigenvalues --    0.99360   0.99952   1.00530   1.00915   1.01161
 Alpha virt. eigenvalues --    1.02302   1.02749   1.03144   1.03324   1.03898
 Alpha virt. eigenvalues --    1.04687   1.05510   1.05858   1.06315   1.06462
 Alpha virt. eigenvalues --    1.07288   1.07471   1.08121   1.08698   1.08985
 Alpha virt. eigenvalues --    1.09443   1.09629   1.10335   1.10580   1.11002
 Alpha virt. eigenvalues --    1.11960   1.12577   1.13369   1.13689   1.14292
 Alpha virt. eigenvalues --    1.14609   1.15664   1.16193   1.16703   1.17111
 Alpha virt. eigenvalues --    1.17552   1.18123   1.18812   1.19094   1.19209
 Alpha virt. eigenvalues --    1.19544   1.20042   1.20761   1.21135   1.21615
 Alpha virt. eigenvalues --    1.21949   1.22576   1.22985   1.24023   1.24408
 Alpha virt. eigenvalues --    1.25663   1.26539   1.26830   1.27605   1.27862
 Alpha virt. eigenvalues --    1.29058   1.29626   1.30909   1.31245   1.32247
 Alpha virt. eigenvalues --    1.33811   1.34293   1.35334   1.36790   1.37842
 Alpha virt. eigenvalues --    1.42478   1.43318   1.44710   1.45428   1.47113
 Alpha virt. eigenvalues --    1.47816   1.49123   1.50253   1.50860   1.51096
 Alpha virt. eigenvalues --    1.51804   1.52519   1.53657   1.53976   1.54233
 Alpha virt. eigenvalues --    1.55177   1.55455   1.55881   1.56047   1.56558
 Alpha virt. eigenvalues --    1.56921   1.57530   1.57737   1.58308   1.58463
 Alpha virt. eigenvalues --    1.58727   1.58988   1.59291   1.60128   1.60288
 Alpha virt. eigenvalues --    1.61013   1.62091   1.62230   1.62446   1.62769
 Alpha virt. eigenvalues --    1.63313   1.63720   1.63916   1.64356   1.64590
 Alpha virt. eigenvalues --    1.65615   1.65754   1.66125   1.66795   1.66999
 Alpha virt. eigenvalues --    1.67498   1.68040   1.68723   1.70479   1.70729
 Alpha virt. eigenvalues --    1.71309   1.71626   1.71934   1.72553   1.72709
 Alpha virt. eigenvalues --    1.73370   1.73453   1.74009   1.74906   1.75303
 Alpha virt. eigenvalues --    1.75563   1.76386   1.76994   1.77559   1.77775
 Alpha virt. eigenvalues --    1.78169   1.78363   1.78624   1.78898   1.79341
 Alpha virt. eigenvalues --    1.79589   1.80487   1.80773   1.81155   1.81515
 Alpha virt. eigenvalues --    1.81617   1.82072   1.82318   1.82858   1.83053
 Alpha virt. eigenvalues --    1.83514   1.83773   1.84397   1.85183   1.85437
 Alpha virt. eigenvalues --    1.85711   1.86141   1.86378   1.86637   1.86905
 Alpha virt. eigenvalues --    1.87020   1.87470   1.87882   1.88515   1.89153
 Alpha virt. eigenvalues --    1.90129   1.90889   1.90985   1.91564   1.92641
 Alpha virt. eigenvalues --    1.92814   1.93252   1.94536   1.95141   1.97169
 Alpha virt. eigenvalues --    1.97491   1.98278   1.99419   2.01202   2.01515
 Alpha virt. eigenvalues --    2.04349   2.05611   2.09018   2.09276   2.11739
 Alpha virt. eigenvalues --    2.15025   2.18975   2.31585   2.33750   2.33965
 Alpha virt. eigenvalues --    2.34466   2.35021   2.35148   2.36284   2.36512
 Alpha virt. eigenvalues --    2.36989   2.37781   2.37988   2.38556   2.39693
 Alpha virt. eigenvalues --    2.39867   2.40659   2.41077   2.42463   2.44565
 Alpha virt. eigenvalues --    2.45055   2.46500   2.47959   2.49651   2.52246
 Alpha virt. eigenvalues --    2.55778   2.55957   2.58386   2.59094   2.59659
 Alpha virt. eigenvalues --    2.60118   2.60757   2.61111   2.61601   2.61961
 Alpha virt. eigenvalues --    2.61971   2.62226   2.62470   2.62772   2.62998
 Alpha virt. eigenvalues --    2.63042   2.63131   2.63525   2.63750   2.64156
 Alpha virt. eigenvalues --    2.64497   2.64632   2.65533   2.65615   2.65725
 Alpha virt. eigenvalues --    2.65953   2.66008   2.67545   2.68554   2.69253
 Alpha virt. eigenvalues --    2.69705   2.70606   2.70905   2.73037   2.74037
 Alpha virt. eigenvalues --    2.74440   2.74723   2.76198   2.76736   2.77345
 Alpha virt. eigenvalues --    2.77580   2.77886   2.81851   2.82627   2.84804
 Alpha virt. eigenvalues --    2.86767   2.93410   3.40446   3.40714   3.40943
 Alpha virt. eigenvalues --    3.41427   3.41987   3.43365   3.43881   3.45074
 Alpha virt. eigenvalues --    3.46059   3.46654   3.47233   3.47741   3.49154
 Alpha virt. eigenvalues --    3.49835   3.52114   3.54156   3.54937   3.55364
 Alpha virt. eigenvalues --    4.72763   6.23510   6.64131   7.77920
          Condensed to atoms (all electrons):
 Mulliken charges:
               1
     1  Si   1.295283
     2  O   -0.649067
     3  O   -0.649983
     4  O   -0.649106
     5  O   -0.755561
     6  Zr   1.611795
     7  Si   1.122893
     8  Si   1.162529
     9  Si   1.135782
    10  O   -0.820529
    11  Zr   1.494523
    12  O   -0.860489
    13  Zr   1.592096
    14  O   -0.827880
    15  Zr   1.550550
    16  O   -0.626897
    17  O   -0.574111
    18  O   -0.666384
    19  O   -0.626478
    20  O   -0.610740
    21  O   -0.641031
    22  O   -0.578276
    23  O   -0.653101
    24  O   -0.618551
    25  H    0.355001
    26  H    0.334189
    27  H    0.367283
    28  H    0.370305
    29  H    0.365497
    30  H    0.337882
    31  H    0.336654
    32  H    0.377994
    33  H    0.344225
    34  O   -0.695211
    35  H    0.332497
    36  O   -0.706914
    37  H    0.365667
    38  O   -0.749315
    39  H    0.331334
    40  O   -0.763628
    41  H    0.371847
    42  O   -0.694134
    43  H    0.334157
    44  O   -0.699166
    45  H    0.335354
    46  O   -0.762537
    47  H    0.380832
    48  O   -0.742381
    49  H    0.340364
    50  O   -0.691240
    51  H    0.366178
 Sum of Mulliken charges =  -0.00000
 Mulliken charges with hydrogens summed into heavy atoms:
               1
     1  Si   1.295283
     2  O   -0.649067
     3  O   -0.649983
     4  O   -0.649106
     5  O   -0.755561
     6  Zr   1.611795
     7  Si   1.122893
     8  Si   1.162529
     9  Si   1.135782
    10  O   -0.820529
    11  Zr   1.494523
    12  O   -0.860489
    13  Zr   1.592096
    14  O   -0.827880
    15  Zr   1.550550
    16  O   -0.289015
    17  O   -0.237457
    18  O   -0.300886
    19  O   -0.282253
    20  O   -0.240435
    21  O   -0.263037
    22  O   -0.244087
    23  O   -0.298100
    24  O   -0.251269
    34  O   -0.362714
    36  O   -0.341247
    38  O   -0.417981
    40  O   -0.391782
    42  O   -0.359976
    44  O   -0.363811
    46  O   -0.381705
    48  O   -0.402018
    50  O   -0.325062
 Electronic spatial extent (au):  <R**2>=          25139.3953
 Charge=             -0.0000 electrons
 Dipole moment (field-independent basis, Debye):
    X=              2.1829    Y=              4.4596    Z=              0.9150  Tot=              5.0488
 Quadrupole moment (field-independent basis, Debye-Ang):
   XX=           -295.0289   YY=           -258.1435   ZZ=           -261.3473
   XY=              3.2375   XZ=              7.6652   YZ=             -8.2610
 Traceless Quadrupole moment (field-independent basis, Debye-Ang):
   XX=            -23.5223   YY=             13.3631   ZZ=             10.1593
   XY=              3.2375   XZ=              7.6652   YZ=             -8.2610
 Octapole moment (field-independent basis, Debye-Ang**2):
  XXX=            326.8930  YYY=            102.8469  ZZZ=            -44.2425  XYY=            157.6216
  XXY=             63.3637  XXZ=            -26.0825  XZZ=            125.3343  YZZ=             10.8321
  YYZ=            -17.8318  XYZ=             59.2532
 Hexadecapole moment (field-independent basis, Debye-Ang**3):
 XXXX=         -22796.7188 YYYY=          -5704.8149 ZZZZ=          -4908.0994 XXXY=            138.2131
 XXXZ=             -8.5192 YYYX=             40.1306 YYYZ=             24.9664 ZZZX=             59.2775
 ZZZY=            -71.2693 XXYY=          -4676.2597 XXZZ=          -3830.7428 YYZZ=          -1735.6179
 XXYZ=           -515.5827 YYXZ=           -169.8142 ZZXY=            178.4566
 N-N= 5.661768006888D+03 E-N=-1.892418819053D+04  KE= 3.091307347323D+03
   1 Symmetry operations used in ECPInt.
 ECPInt:  NShTT=   21321 NPrTT=  126439 LenC2=   15399 LenP2D=   51739.
 LDataN:  DoStor=T MaxTD1= 6 Len=  172
 Number of processors reduced to  14 by ecpmxn.
 Calling FoFJK, ICntrl=      2127 FMM=F ISym2X=0 I1Cent= 0 IOpClX= 0 NMat=1 NMatS=1 NMatT=0.
 Defaulting to unpruned grid for atomic number  40.
 Defaulting to unpruned grid for atomic number  40.
 Defaulting to unpruned grid for atomic number  40.
 Defaulting to unpruned grid for atomic number  40.
 Defaulting to unpruned grid for atomic number  40.
 Defaulting to unpruned grid for atomic number  40.
 Defaulting to unpruned grid for atomic number  40.
 Defaulting to unpruned grid for atomic number  40.
 Defaulting to unpruned grid for atomic number  40.
 Defaulting to unpruned grid for atomic number  40.
 Defaulting to unpruned grid for atomic number  40.
 Defaulting to unpruned grid for atomic number  40.
 Defaulting to unpruned grid for atomic number  40.
 Defaulting to unpruned grid for atomic number  40.
 Defaulting to unpruned grid for atomic number  40.
 Defaulting to unpruned grid for atomic number  40.
 ***** Axes restored to original set *****
 -------------------------------------------------------------------
 Center     Atomic                   Forces (Hartrees/Bohr)
 Number     Number              X              Y              Z
 -------------------------------------------------------------------
      1       14           0.000248354   -0.000059963    0.000258469
      2        8          -0.000037370    0.000031729   -0.000032031
      3        8          -0.000004656    0.000012499   -0.000029420
      4        8          -0.000001567    0.000004108   -0.000031981
      5        8           0.000091397    0.000014226   -0.000091295
      6       40          -0.000280479   -0.000026251    0.000188719
      7       14           0.000074976   -0.000056760   -0.000147172
      8       14           0.000037159   -0.000028083    0.000016992
      9       14           0.000024283    0.000012749    0.000033369
     10        8           0.000069565   -0.000076630   -0.000021038
     11       40          -0.000040228    0.000058267   -0.000035667
     12        8          -0.000028632   -0.000343302    0.000106482
     13       40          -0.000391878    0.000789913   -0.000917352
     14        8           0.000076685    0.000060023   -0.000001917
     15       40          -0.000060647   -0.000017889   -0.000012010
     16        8          -0.000012924    0.000003060   -0.000012729
     17        8          -0.000006854    0.000008410    0.000000296
     18        8          -0.000011580    0.000007304   -0.000012577
     19        8          -0.000031803    0.000008709   -0.000009047
     20        8           0.000003967    0.000005545    0.000019820
     21        8           0.001980723    0.000082393   -0.000548045
     22        8          -0.000002838   -0.000006817   -0.000016407
     23        8          -0.000014598   -0.000001027   -0.000002668
     24        8          -0.000010912   -0.000007857   -0.000020740
     25        1          -0.000001287   -0.000003781    0.000001729
     26        1          -0.000001450    0.000003654    0.000003594
     27        1           0.000012811    0.000014357    0.000017693
     28        1           0.000022227   -0.000012059    0.000003208
     29        1           0.000011235    0.000005815    0.000003242
     30        1           0.000000619   -0.000002120    0.000006143
     31        1           0.000001702   -0.000006190    0.000003137
     32        1          -0.000428187   -0.000336498    0.000569540
     33        1           0.000024368    0.000007283    0.000008422
     34        8           0.000000438   -0.000003759   -0.000000454
     35        1          -0.000000052    0.000001933    0.000000158
     36        8           0.000007846   -0.000002798    0.000012450
     37        1          -0.000005283    0.000004629   -0.000005342
     38        8          -0.000006245   -0.000002778    0.000025468
     39        1           0.000001693   -0.000007242   -0.000005985
     40        8           0.000017737   -0.000020131    0.000029653
     41        1           0.000005590    0.000012442   -0.000028851
     42        8           0.000011458    0.000008129   -0.000012167
     43        1          -0.000002998   -0.000003028    0.000003574
     44        8           0.000004027    0.000010417    0.000010689
     45        1          -0.000002023    0.000000746    0.000000240
     46        8          -0.000029156    0.000018935    0.000068344
     47        1           0.000013428   -0.000019642   -0.000024910
     48        8          -0.000024240   -0.000036204    0.000043525
     49        1           0.000010003    0.000010692   -0.000016343
     50        8          -0.001597784    0.000299959    0.000278454
     51        1           0.000283381   -0.000417121    0.000322739
 -------------------------------------------------------------------
 Cartesian Forces:  Max     0.001980723 RMS     0.000256118

 GradGradGradGradGradGradGradGradGradGradGradGradGradGradGradGradGradGrad
 Berny optimization.
 FormGI is forming the generalized inverse of G from B-inverse, IUseBI=4.
 Internal  Forces:  Max     0.013607210 RMS     0.001362921
 Search for a local minimum.
 Step number   1 out of a maximum of  229
 All quantities printed in internal units (Hartrees-Bohrs-Radians)
 Mixed Optimization -- RFO/linear search
 Second derivative matrix not updated -- first step.
 ITU=  0
     Eigenvalues ---    0.00230   0.00230   0.00230   0.00230   0.00230
     Eigenvalues ---    0.00230   0.00230   0.00230   0.00230   0.00230
     Eigenvalues ---    0.00230   0.00230   0.00230   0.00230   0.00230
     Eigenvalues ---    0.00230   0.03447   0.03470   0.03516   0.03601
     Eigenvalues ---    0.03614   0.03629   0.03654   0.03686   0.03816
     Eigenvalues ---    0.03823   0.03827   0.03839   0.03923   0.03964
     Eigenvalues ---    0.04008   0.04039   0.06239   0.08354   0.08564
     Eigenvalues ---    0.08974   0.09448   0.10123   0.10678   0.11232
     Eigenvalues ---    0.11368   0.11507   0.11595   0.11636   0.11773
     Eigenvalues ---    0.11825   0.11923   0.12003   0.12146   0.12566
     Eigenvalues ---    0.12661   0.12746   0.12781   0.12915   0.12948
     Eigenvalues ---    0.13420   0.16000   0.16000   0.16000   0.16000
     Eigenvalues ---    0.16000   0.16000   0.16000   0.16000   0.16000
     Eigenvalues ---    0.16000   0.16000   0.16000   0.16000   0.16000
     Eigenvalues ---    0.16000   0.16000   0.16000   0.16000   0.16475
     Eigenvalues ---    0.16652   0.16972   0.17555   0.17903   0.18059
     Eigenvalues ---    0.18629   0.18751   0.19259   0.19512   0.19624
     Eigenvalues ---    0.19663   0.19719   0.19731   0.19849   0.20192
     Eigenvalues ---    0.20247   0.20296   0.20320   0.20376   0.20393
     Eigenvalues ---    0.20422   0.20645   0.20651   0.20806   0.20824
     Eigenvalues ---    0.20868   0.21022   0.21050   0.21076   0.21270
     Eigenvalues ---    0.21906   0.25000   0.25000   0.25000   0.25000
     Eigenvalues ---    0.25000   0.25000   0.40115   0.40361   0.40848
     Eigenvalues ---    0.41777   0.41931   0.42098   0.42374   0.42741
     Eigenvalues ---    0.44274   0.44356   0.44406   0.44546   0.45586
     Eigenvalues ---    0.46106   0.46669   0.47064   0.51271   0.51295
     Eigenvalues ---    0.51607   0.51681   0.51720   0.52103   0.52343
     Eigenvalues ---    0.52512   0.53065   0.54681   0.54684   0.54738
     Eigenvalues ---    0.54742   0.54756   0.54764   0.55002   0.55452
     Eigenvalues ---    0.556781000.000001000.000001000.000001000.00000
     Eigenvalues --- 1000.000001000.000001000.000001000.000001000.00000
     Eigenvalues --- 1000.000001000.000001000.000001000.000001000.00000
     Eigenvalues --- 1000.000001000.000001000.000001000.000001000.00000
     Eigenvalues --- 1000.000001000.000001000.000001000.000001000.00000
     Eigenvalues --- 1000.000001000.000001000.000001000.000001000.00000
     Eigenvalues --- 1000.000001000.000001000.000001000.000001000.00000
     Eigenvalues --- 1000.000001000.000001000.000001000.000001000.00000
     Eigenvalues --- 1000.000001000.000001000.000001000.000001000.00000
     Eigenvalues --- 1000.000001000.000001000.000001000.000001000.00000
     Eigenvalues --- 1000.000001000.000001000.000001000.000001000.00000
     Eigenvalues --- 1000.000001000.000001000.000001000.000001000.00000
     Eigenvalues --- 1000.000001000.000001000.000001000.000001000.00000
     Eigenvalues --- 1000.000001000.000001000.000001000.000001000.00000
     Eigenvalues --- 1000.000001000.000001000.000001000.00000
 RFO step:  Lambda=-1.96196762D-03 EMin= 2.30000000D-03
 Linear search not attempted -- first point.
 Iteration  1 RMS(Cart)=  0.23912474 RMS(Int)=  0.00714652
 Iteration  2 RMS(Cart)=  0.03511319 RMS(Int)=  0.00011738
 Iteration  3 RMS(Cart)=  0.00036403 RMS(Int)=  0.00002203
 Iteration  4 RMS(Cart)=  0.00000007 RMS(Int)=  0.00002203
 Iteration  1 RMS(Cart)=  0.00000000 RMS(Int)=  0.00000000
 Variable       Old X    -DE/DX   Delta X   Delta X   Delta X     New X
                                 (Linear)    (Quad)   (Total)
    R1        3.09828   0.00008   0.00000   0.00019   0.00019   3.09847
    R2        3.12499  -0.00001   0.00000  -0.00002  -0.00002   3.12497
    R3        3.09671  -0.00000   0.00000  -0.00001  -0.00001   3.09670
    R4        3.06649  -0.00163   0.00000  -0.00346  -0.00346   3.06303
    R5        3.07712  -0.00035   0.00000  -0.00075  -0.00075   3.07637
    R6        3.11691  -0.00002   0.00000  -0.00005  -0.00005   3.11686
    R7        3.14118  -0.00001   0.00000  -0.00002  -0.00002   3.14116
    R8        3.80050  -0.00189   0.00000  -0.01067  -0.01067   3.78983
    R9        3.64784   0.00005   0.00000   0.00022   0.00022   3.64806
   R10        3.82477  -0.00033   0.00000  -0.00192  -0.00192   3.82285
   R11        3.72226   0.00007   0.00000   0.00036   0.00036   3.72262
   R12        3.15098  -0.00001   0.00000  -0.00003  -0.00003   3.15095
   R13        3.08301  -0.00001   0.00000  -0.00002  -0.00002   3.08298
   R14        3.12149   0.00135   0.00000   0.00317   0.00317   3.12466
   R15        3.12908   0.00001   0.00000   0.00003   0.00003   3.12911
   R16        3.09506   0.00000   0.00000   0.00001   0.00001   3.09507
   R17        3.12711  -0.00002   0.00000  -0.00004  -0.00004   3.12707
   R18        3.09730   0.00001   0.00000   0.00003   0.00003   3.09733
   R19        3.14766   0.00001   0.00000   0.00003   0.00003   3.14769
   R20        3.07084  -0.00001   0.00000  -0.00001  -0.00001   3.07083
   R21        3.84641  -0.00006   0.00000  -0.00036  -0.00036   3.84605
   R22        3.71852   0.00000   0.00000   0.00000   0.00000   3.71852
   R23        3.67541   0.00000   0.00000   0.00002   0.00002   3.67543
   R24        3.83860   0.00002   0.00000   0.00011   0.00011   3.83871
   R25        3.72624  -0.00161   0.00000  -0.00815  -0.00815   3.71809
   R26        3.78034  -0.00003   0.00000  -0.00018  -0.00018   3.78016
   R27        3.78651  -0.00002   0.00000  -0.00009  -0.00009   3.78642
   R28        3.66751   0.00119   0.00000   0.00555   0.00555   3.67306
   R29        3.75387  -0.00003   0.00000  -0.00016  -0.00016   3.75371
   R30        3.75846   0.00002   0.00000   0.00008   0.00008   3.75854
   R31        3.69499   0.00001   0.00000   0.00007   0.00007   3.69505
   R32        3.68178   0.00001   0.00000   0.00007   0.00007   3.68185
   R33        1.82117  -0.00001   0.00000  -0.00001  -0.00001   1.82115
   R34        1.82049  -0.00000   0.00000  -0.00000  -0.00000   1.82049
   R35        1.85304  -0.00001   0.00000  -0.00002  -0.00002   1.85302
   R36        1.82114  -0.00001   0.00000  -0.00002  -0.00002   1.82112
   R37        1.84977  -0.00002   0.00000  -0.00004  -0.00004   1.84973
   R38        1.84500  -0.00077   0.00000  -0.00147  -0.00147   1.84353
   R39        1.82042  -0.00000   0.00000  -0.00001  -0.00001   1.82041
   R40        1.83593  -0.00000   0.00000  -0.00001  -0.00001   1.83592
   R41        1.84272   0.00002   0.00000   0.00005   0.00005   1.84277
   R42        1.81830  -0.00000   0.00000  -0.00000  -0.00000   1.81830
   R43        1.84906  -0.00000   0.00000  -0.00000  -0.00000   1.84906
   R44        1.82066   0.00001   0.00000   0.00002   0.00002   1.82067
   R45        1.85280  -0.00003   0.00000  -0.00006  -0.00006   1.85274
   R46        1.81433  -0.00001   0.00000  -0.00001  -0.00001   1.81432
   R47        1.81234   0.00000   0.00000   0.00000   0.00000   1.81234
   R48        1.84869   0.00002   0.00000   0.00004   0.00004   1.84873
   R49        1.82062  -0.00001   0.00000  -0.00002  -0.00002   1.82061
   R50        1.84112  -0.00028   0.00000  -0.00054  -0.00054   1.84059
    A1        1.89403   0.00231   0.00000   0.01171   0.01169   1.90573
    A2        1.88617   0.00081   0.00000   0.00271   0.00265   1.88882
    A3        1.87938  -0.00521   0.00000  -0.03238  -0.03236   1.84702
    A4        1.91364  -0.00075   0.00000   0.00374   0.00365   1.91729
    A5        1.92354   0.00109   0.00000   0.00616   0.00615   1.92968
    A6        1.96515   0.00173   0.00000   0.00767   0.00758   1.97273
    A7        2.84348   0.00654   0.00000   0.02595   0.02595   2.86943
    A8        2.31720  -0.00002   0.00000  -0.00008  -0.00008   2.31712
    A9        2.35610  -0.00007   0.00000  -0.00027  -0.00027   2.35583
   A10        2.40153  -0.01361   0.00000   0.00000   0.00000   2.40153
   A11        1.98022   0.00092   0.00000   0.00630   0.00617   1.98639
   A12        1.98270  -0.00561   0.00000  -0.03872  -0.03870   1.94401
   A13        1.99112   0.00184   0.00000   0.01077   0.01066   2.00177
   A14        1.77332   0.00198   0.00000   0.00796   0.00791   1.78123
   A15        1.88957  -0.00076   0.00000   0.00704   0.00690   1.89647
   A16        1.82833   0.00173   0.00000   0.00714   0.00712   1.83545
   A17        1.81235   0.00015   0.00000   0.00017   0.00016   1.81251
   A18        1.98544   0.00032   0.00000   0.00208   0.00208   1.98752
   A19        1.86767  -0.00081   0.00000  -0.00491  -0.00492   1.86275
   A20        1.94580  -0.00012   0.00000   0.00041   0.00041   1.94621
   A21        1.92845  -0.00015   0.00000  -0.00123  -0.00123   1.92722
   A22        1.92030   0.00055   0.00000   0.00303   0.00303   1.92333
   A23        1.94596   0.00000   0.00000   0.00002   0.00002   1.94598
   A24        1.88055   0.00000   0.00000   0.00000   0.00000   1.88056
   A25        1.93311   0.00000   0.00000   0.00003   0.00003   1.93315
   A26        1.93173  -0.00000   0.00000  -0.00002  -0.00002   1.93171
   A27        1.82723  -0.00000   0.00000  -0.00000  -0.00000   1.82722
   A28        1.94617  -0.00000   0.00000  -0.00003  -0.00003   1.94614
   A29        1.88532   0.00000   0.00000   0.00000   0.00000   1.88533
   A30        1.89442   0.00002   0.00000   0.00011   0.00011   1.89453
   A31        1.95715  -0.00002   0.00000  -0.00010  -0.00010   1.95705
   A32        1.87632  -0.00001   0.00000  -0.00004  -0.00004   1.87628
   A33        1.94135   0.00001   0.00000   0.00003   0.00003   1.94138
   A34        1.90697  -0.00000   0.00000  -0.00001  -0.00001   1.90696
   A35        2.53226  -0.00005   0.00000  -0.00020  -0.00020   2.53205
   A36        1.81825   0.00001   0.00000   0.00015   0.00015   1.81841
   A37        1.87907  -0.00000   0.00000  -0.00006  -0.00006   1.87901
   A38        2.09284  -0.00001   0.00000  -0.00013  -0.00013   2.09271
   A39        1.80039   0.00000   0.00000   0.00010   0.00010   1.80049
   A40        1.73309   0.00001   0.00000   0.00012   0.00012   1.73321
   A41        2.08557  -0.00000   0.00000  -0.00006  -0.00006   2.08551
   A42        2.29330   0.00467   0.00000   0.01855   0.01855   2.31185
   A43        1.83467   0.00035   0.00000   0.00146   0.00146   1.83613
   A44        1.90442   0.00030   0.00000   0.00147   0.00147   1.90589
   A45        1.85062  -0.00098   0.00000  -0.00695  -0.00695   1.84367
   A46        1.91620  -0.00013   0.00000   0.00135   0.00135   1.91755
   A47        1.99552   0.00013   0.00000   0.00067   0.00066   1.99618
   A48        1.95546   0.00032   0.00000   0.00172   0.00172   1.95719
   A49        2.44669   0.00006   0.00000   0.00026   0.00026   2.44694
   A50        1.83016   0.00003   0.00000   0.00021   0.00021   1.83037
   A51        1.92532  -0.00001   0.00000  -0.00005  -0.00005   1.92527
   A52        1.89530  -0.00000   0.00000   0.00002   0.00002   1.89532
   A53        1.89947  -0.00001   0.00000  -0.00010  -0.00010   1.89937
   A54        1.93645  -0.00000   0.00000  -0.00000  -0.00000   1.93644
   A55        1.97197   0.00000   0.00000  -0.00005  -0.00005   1.97192
   A56        2.03455  -0.00000   0.00000  -0.00002  -0.00002   2.03453
   A57        2.01642  -0.00001   0.00000  -0.00006  -0.00006   2.01636
   A58        1.93923  -0.00000   0.00000  -0.00001  -0.00001   1.93922
   A59        2.03937  -0.00002   0.00000  -0.00015  -0.00015   2.03923
   A60        1.98603  -0.00002   0.00000  -0.00015  -0.00015   1.98588
   A61        1.92108   0.00030   0.00000   0.00184   0.00184   1.92291
   A62        2.02348  -0.00001   0.00000  -0.00003  -0.00003   2.02345
[...]
     49          1           0        3.798970    0.564472    3.881866
     50          8           0        0.966643   -1.591527    3.850125
     51          1           0        0.009723   -1.464012    3.981796
 ---------------------------------------------------------------------
 Rotational constants (GHZ):           0.0869994           0.0386986           0.0364770

 **********************************************************************

            Population analysis using the SCF Density.

 **********************************************************************

 Orbital symmetries:
       Occupied  (A) (A) (A) (A) (A) (A) (A) (A) (A) (A) (A) (A)
                 (A) (A) (A) (A) (A) (A) (A) (A) (A) (A) (A) (A)
                 (A) (A) (A) (A) (A) (A) (A) (A) (A) (A) (A) (A)
                 (A) (A) (A) (A) (A) (A) (A) (A) (A) (A) (A) (A)
                 (A) (A) (A) (A) (A) (A) (A) (A) (A) (A) (A) (A)
                 (A) (A) (A) (A) (A) (A) (A) (A) (A) (A) (A) (A)
                 (A) (A) (A) (A) (A) (A) (A) (A) (A) (A) (A) (A)
                 (A) (A) (A) (A) (A) (A) (A) (A) (A) (A) (A) (A)
                 (A) (A) (A) (A) (A) (A) (A) (A) (A) (A) (A) (A)
                 (A) (A) (A) (A) (A) (A) (A) (A) (A) (A) (A) (A)
                 (A) (A) (A) (A) (A) (A) (A) (A) (A) (A) (A) (A)
                 (A) (A) (A) (A) (A) (A) (A) (A) (A) (A) (A) (A)
                 (A) (A) (A) (A) (A) (A) (A) (A) (A) (A) (A) (A)
                 (A) (A) (A) (A) (A)
       Virtual   (A) (A) (A) (A) (A) (A) (A) (A) (A) (A) (A) (A)
                 (A) (A) (A) (A) (A) (A) (A) (A) (A) (A) (A) (A)
                 (A) (A) (A) (A) (A) (A) (A) (A) (A) (A) (A) (A)
                 (A) (A) (A) (A) (A) (A) (A) (A) (A) (A) (A) (A)
                 (A) (A) (A) (A) (A) (A) (A) (A) (A) (A) (A) (A)
                 (A) (A) (A) (A) (A) (A) (A) (A) (A) (A) (A) (A)
                 (A) (A) (A) (A) (A) (A) (A) (A) (A) (A) (A) (A)
                 (A) (A) (A) (A) (A) (A) (A) (A) (A) (A) (A) (A)
                 (A) (A) (A) (A) (A) (A) (A) (A) (A) (A) (A) (A)
                 (A) (A) (A) (A) (A) (A) (A) (A) (A) (A) (A) (A)
                 (A) (A) (A) (A) (A) (A) (A) (A) (A) (A) (A) (A)
                 (A) (A) (A) (A) (A) (A) (A) (A) (A) (A) (A) (A)
                 (A) (A) (A) (A) (A) (A) (A) (A) (A) (A) (A) (A)
                 (A) (A) (A) (A) (A) (A) (A) (A) (A) (A) (A) (A)
                 (A) (A) (A) (A) (A) (A) (A) (A) (A) (A) (A) (A)
                 (A) (A) (A) (A) (A) (A) (A) (A) (A) (A) (A) (A)
                 (A) (A) (A) (A) (A) (A) (A) (A) (A) (A) (A) (A)
                 (A) (A) (A) (A) (A) (A) (A) (A) (A) (A) (A) (A)
                 (A) (A) (A) (A) (A) (A) (A) (A) (A) (A) (A) (A)
                 (A) (A) (A) (A) (A) (A) (A) (A) (A) (A) (A) (A)
                 (A) (A) (A) (A) (A) (A) (A) (A) (A) (A) (A) (A)
                 (A) (A) (A) (A) (A) (A) (A) (A) (A) (A) (A) (A)
                 (A) (A) (A) (A) (A) (A) (A) (A) (A) (A) (A) (A)
                 (A) (A) (A) (A) (A) (A) (A) (A) (A) (A) (A) (A)
                 (A) (A) (A) (A) (A) (A) (A) (A) (A) (A) (A) (A)
                 (A) (A) (A) (A) (A) (A) (A) (A) (A) (A) (A) (A)
                 (A) (A) (A) (A) (A) (A) (A) (A) (A) (A) (A) (A)
                 (A) (A) (A) (A) (A) (A) (A) (A) (A) (A) (A) (A)
                 (A) (A) (A) (A) (A) (A) (A) (A) (A) (A) (A) (A)
                 (A) (A) (A) (A) (A) (A) (A) (A) (A) (A) (A) (A)
                 (A) (A) (A) (A) (A) (A) (A) (A) (A) (A) (A) (A)
                 (A) (A) (A) (A) (A) (A) (A) (A) (A) (A) (A) (A)
                 (A) (A) (A) (A) (A) (A) (A) (A) (A) (A) (A) (A)
                 (A) (A) (A) (A) (A) (A) (A) (A) (A) (A) (A) (A)
                 (A) (A) (A) (A) (A) (A) (A) (A) (A) (A) (A) (A)
                 (A) (A) (A) (A) (A) (A) (A) (A) (A) (A) (A) (A)
                 (A) (A) (A) (A) (A) (A) (A)
 The electronic state is 1-A.
 Alpha  occ. eigenvalues --  -66.22067 -66.21848 -66.21362 -66.20200 -19.17114
 Alpha  occ. eigenvalues --  -19.17040 -19.16401 -19.16362 -19.16144 -19.16018
 Alpha  occ. eigenvalues --  -19.15869 -19.15822 -19.15732 -19.15722 -19.15542
 Alpha  occ. eigenvalues --  -19.15269 -19.15132 -19.14693 -19.14581 -19.14304
 Alpha  occ. eigenvalues --  -19.14290 -19.14278 -19.14255 -19.14110 -19.13395
 Alpha  occ. eigenvalues --  -19.13196 -19.12581 -19.12134 -19.11643  -5.36080
 Alpha  occ. eigenvalues --   -5.36028  -5.35555  -5.34409  -3.72057  -3.72043
 Alpha  occ. eigenvalues --   -3.72020  -3.71989  -3.71986  -3.71920  -3.71619
 Alpha  occ. eigenvalues --   -3.71472  -3.71397  -3.70403  -3.70357  -3.70285
 Alpha  occ. eigenvalues --   -2.08272  -2.06947  -2.06817  -2.05089  -1.29329
 Alpha  occ. eigenvalues --   -1.28938  -1.28529  -1.27985  -1.27758  -1.27693
 Alpha  occ. eigenvalues --   -1.27186  -1.27163  -1.26746  -1.25733  -1.25480
 Alpha  occ. eigenvalues --   -1.25142  -1.05290  -1.04329  -1.03082  -1.01939
 Alpha  occ. eigenvalues --   -1.01437  -1.01170  -1.00974  -0.99758  -0.99482
 Alpha  occ. eigenvalues --   -0.98766  -0.98546  -0.98349  -0.97936  -0.97434
 Alpha  occ. eigenvalues --   -0.96696  -0.96344  -0.95486  -0.95068  -0.94973
 Alpha  occ. eigenvalues --   -0.93896  -0.93674  -0.92093  -0.91211  -0.89535
 Alpha  occ. eigenvalues --   -0.88447  -0.61678  -0.59595  -0.58804  -0.55894
 Alpha  occ. eigenvalues --   -0.54408  -0.53576  -0.52320  -0.52130  -0.51468
 Alpha  occ. eigenvalues --   -0.51380  -0.51058  -0.51018  -0.50776  -0.50191
 Alpha  occ. eigenvalues --   -0.50132  -0.49102  -0.48880  -0.47757  -0.46764
 Alpha  occ. eigenvalues --   -0.45656  -0.45579  -0.44788  -0.42803  -0.42039
 Alpha  occ. eigenvalues --   -0.41479  -0.41385  -0.40585  -0.40412  -0.40224
 Alpha  occ. eigenvalues --   -0.39695  -0.39549  -0.39199  -0.38969  -0.38432
 Alpha  occ. eigenvalues --   -0.37866  -0.37521  -0.37365  -0.37199  -0.36858
 Alpha  occ. eigenvalues --   -0.36680  -0.36142  -0.35965  -0.35755  -0.35624
 Alpha  occ. eigenvalues --   -0.35427  -0.35219  -0.35114  -0.34951  -0.34904
 Alpha  occ. eigenvalues --   -0.34655  -0.34297  -0.34246  -0.34104  -0.33990
 Alpha  occ. eigenvalues --   -0.33787  -0.33470  -0.33412  -0.33181  -0.33043
 Alpha  occ. eigenvalues --   -0.32866  -0.32584  -0.32529  -0.32239  -0.31970
 Alpha  occ. eigenvalues --   -0.31796  -0.31644  -0.31478  -0.31147  -0.31008
 Alpha  occ. eigenvalues --   -0.30812  -0.30746  -0.30206  -0.29531  -0.29143
 Alpha  occ. eigenvalues --   -0.28620
 Alpha virt. eigenvalues --   -0.05231  -0.04766  -0.04431  -0.03421  -0.02870
 Alpha virt. eigenvalues --   -0.02695  -0.01905  -0.01599  -0.01331  -0.01093
 Alpha virt. eigenvalues --   -0.00660  -0.00602  -0.00364   0.00040   0.00517
 Alpha virt. eigenvalues --    0.00659   0.00916   0.01399   0.01520   0.01802
 Alpha virt. eigenvalues --    0.02322   0.02472   0.02776   0.02944   0.03220
 Alpha virt. eigenvalues --    0.03777   0.04087   0.04196   0.05001   0.05426
 Alpha virt. eigenvalues --    0.05771   0.05836   0.06224   0.06549   0.07117
 Alpha virt. eigenvalues --    0.08113   0.08295   0.08684   0.09575   0.10241
 Alpha virt. eigenvalues --    0.10501   0.11198   0.11828   0.12459   0.12836
 Alpha virt. eigenvalues --    0.13449   0.13906   0.14590   0.15041   0.15258
 Alpha virt. eigenvalues --    0.15848   0.16272   0.16558   0.16697   0.16945
 Alpha virt. eigenvalues --    0.17552   0.17997   0.18147   0.18421   0.18708
 Alpha virt. eigenvalues --    0.19172   0.19429   0.19706   0.20252   0.20800
 Alpha virt. eigenvalues --    0.20928   0.21261   0.21508   0.22188   0.22265
 Alpha virt. eigenvalues --    0.22539   0.22789   0.22895   0.23321   0.24118
 Alpha virt. eigenvalues --    0.24221   0.24449   0.24741   0.25048   0.25650
 Alpha virt. eigenvalues --    0.25938   0.26631   0.26790   0.27469   0.27598
 Alpha virt. eigenvalues --    0.28304   0.28700   0.29322   0.29996   0.30071
 Alpha virt. eigenvalues --    0.30492   0.31147   0.31261   0.32020   0.32605
 Alpha virt. eigenvalues --    0.33337   0.33703   0.34114   0.34598   0.35191
 Alpha virt. eigenvalues --    0.36016   0.36622   0.36887   0.37518   0.37888
 Alpha virt. eigenvalues --    0.38374   0.39519   0.40831   0.41239   0.41835
 Alpha virt. eigenvalues --    0.42228   0.44559   0.45037   0.46505   0.46912
 Alpha virt. eigenvalues --    0.49268   0.49942   0.52022   0.55428   0.56397
 Alpha virt. eigenvalues --    0.58076   0.59592   0.60476   0.64662   0.66524
 Alpha virt. eigenvalues --    0.67299   0.76572   0.76849   0.78740   0.79654
 Alpha virt. eigenvalues --    0.80211   0.80976   0.81161   0.82083   0.83620
 Alpha virt. eigenvalues --    0.83717   0.84017   0.84819   0.85901   0.86735
 Alpha virt. eigenvalues --    0.86869   0.87917   0.88937   0.89591   0.90349
 Alpha virt. eigenvalues --    0.90700   0.91757   0.92163   0.92398   0.93197
 Alpha virt. eigenvalues --    0.93287   0.93989   0.94423   0.94886   0.95561
 Alpha virt. eigenvalues --    0.96335   0.96516   0.96772   0.97418   0.97506
 Alpha virt. eigenvalues --    0.97658   0.98120   0.98356   0.98639   0.99250
 Alpha virt. eigenvalues --    0.99372   1.00051   1.00648   1.00921   1.01209
 Alpha virt. eigenvalues --    1.02386   1.02902   1.03252   1.03357   1.03904
 Alpha virt. eigenvalues --    1.04709   1.05562   1.05856   1.06406   1.06474
 Alpha virt. eigenvalues --    1.07329   1.07524   1.08147   1.08721   1.08966
 Alpha virt. eigenvalues --    1.09446   1.09697   1.10324   1.10590   1.11029
 Alpha virt. eigenvalues --    1.11983   1.12652   1.13350   1.13824   1.14307
 Alpha virt. eigenvalues --    1.14795   1.15754   1.16236   1.16631   1.17180
 Alpha virt. eigenvalues --    1.17556   1.18158   1.18847   1.19108   1.19216
 Alpha virt. eigenvalues --    1.19582   1.20028   1.20874   1.21106   1.21650
 Alpha virt. eigenvalues --    1.21900   1.22540   1.23025   1.23993   1.24406
 Alpha virt. eigenvalues --    1.25690   1.26532   1.26841   1.27602   1.27921
 Alpha virt. eigenvalues --    1.29027   1.29634   1.30830   1.31167   1.32194
 Alpha virt. eigenvalues --    1.33811   1.34264   1.35318   1.36739   1.37845
 Alpha virt. eigenvalues --    1.42479   1.43338   1.44677   1.45426   1.47127
 Alpha virt. eigenvalues --    1.47790   1.49118   1.50242   1.50874   1.51139
 Alpha virt. eigenvalues --    1.51873   1.52525   1.53689   1.53928   1.54258
 Alpha virt. eigenvalues --    1.55140   1.55503   1.55898   1.56066   1.56651
 Alpha virt. eigenvalues --    1.56917   1.57481   1.57758   1.58309   1.58458
 Alpha virt. eigenvalues --    1.58822   1.58983   1.59421   1.60175   1.60361
 Alpha virt. eigenvalues --    1.61063   1.62105   1.62199   1.62484   1.62802
 Alpha virt. eigenvalues --    1.63343   1.63772   1.63937   1.64503   1.64663
 Alpha virt. eigenvalues --    1.65634   1.65808   1.66127   1.66797   1.66970
 Alpha virt. eigenvalues --    1.67486   1.68041   1.68710   1.70460   1.70738
 Alpha virt. eigenvalues --    1.71250   1.71663   1.71952   1.72548   1.72758
 Alpha virt. eigenvalues --    1.73397   1.73439   1.74126   1.74884   1.75325
 Alpha virt. eigenvalues --    1.75638   1.76399   1.77000   1.77549   1.77763
 Alpha virt. eigenvalues --    1.78192   1.78353   1.78607   1.78886   1.79362
 Alpha virt. eigenvalues --    1.79578   1.80478   1.80798   1.81147   1.81503
 Alpha virt. eigenvalues --    1.81664   1.82082   1.82316   1.82882   1.83045
 Alpha virt. eigenvalues --    1.83508   1.83765   1.84394   1.85182   1.85453
 Alpha virt. eigenvalues --    1.85697   1.86151   1.86382   1.86624   1.86901
 Alpha virt. eigenvalues --    1.87026   1.87485   1.87867   1.88535   1.89183
 Alpha virt. eigenvalues --    1.90129   1.90865   1.90995   1.91744   1.92671
 Alpha virt. eigenvalues --    1.92882   1.93249   1.94553   1.95121   1.97173
 Alpha virt. eigenvalues --    1.97458   1.98247   1.99409   2.01236   2.01521
 Alpha virt. eigenvalues --    2.04322   2.05685   2.08969   2.09273   2.11726
 Alpha virt. eigenvalues --    2.15041   2.18983   2.31401   2.33718   2.33983
 Alpha virt. eigenvalues --    2.34456   2.35015   2.35105   2.36284   2.36547
 Alpha virt. eigenvalues --    2.36984   2.37966   2.37990   2.39622   2.39707
 Alpha virt. eigenvalues --    2.39890   2.40664   2.41064   2.42462   2.44570
 Alpha virt. eigenvalues --    2.44994   2.46481   2.47921   2.49610   2.52209
 Alpha virt. eigenvalues --    2.55860   2.56277   2.58367   2.59180   2.59729
 Alpha virt. eigenvalues --    2.60122   2.60766   2.61247   2.61618   2.61977
 Alpha virt. eigenvalues --    2.62060   2.62303   2.62502   2.62781   2.63001
 Alpha virt. eigenvalues --    2.63071   2.63130   2.63524   2.63773   2.64149
 Alpha virt. eigenvalues --    2.64552   2.64655   2.65531   2.65626   2.65723
 Alpha virt. eigenvalues --    2.65957   2.66446   2.67540   2.68552   2.69265
 Alpha virt. eigenvalues --    2.69685   2.70621   2.70969   2.73040   2.73979
 Alpha virt. eigenvalues --    2.74540   2.74769   2.76619   2.76794   2.77478
 Alpha virt. eigenvalues --    2.77572   2.78021   2.81875   2.82610   2.84782
 Alpha virt. eigenvalues --    2.86757   2.93576   3.40454   3.40698   3.40935
 Alpha virt. eigenvalues --    3.41422   3.41999   3.43360   3.43864   3.45079
 Alpha virt. eigenvalues --    3.46062   3.46558   3.47259   3.47731   3.49202
 Alpha virt. eigenvalues --    3.49865   3.52071   3.54304   3.54897   3.55384
 Alpha virt. eigenvalues --    4.72742   6.23325   6.63738   7.77778
          Condensed to atoms (all electrons):
 Mulliken charges:
               1
     1  Si   1.294577
     2  O   -0.648022
     3  O   -0.649973
     4  O   -0.648979
     5  O   -0.755583
     6  Zr   1.613384
     7  Si   1.122923
     8  Si   1.162533
     9  Si   1.135785
    10  O   -0.820650
    11  Zr   1.494211
    12  O   -0.863739
    13  Zr   1.591931
    14  O   -0.827912
    15  Zr   1.550532
    16  O   -0.626866
    17  O   -0.574196
    18  O   -0.666015
    19  O   -0.626383
    20  O   -0.610569
    21  O   -0.644250
    22  O   -0.578203
    23  O   -0.653275
    24  O   -0.618489
    25  H    0.355029
    26  H    0.334144
    27  H    0.367250
    28  H    0.370172
    29  H    0.365415
    30  H    0.337885
    31  H    0.336612
    32  H    0.381319
    33  H    0.344295
    34  O   -0.695161
    35  H    0.332505
    36  O   -0.706931
    37  H    0.365618
    38  O   -0.749330
    39  H    0.331330
    40  O   -0.763659
    41  H    0.371912
    42  O   -0.694176
    43  H    0.334184
    44  O   -0.699158
    45  H    0.335362
    46  O   -0.762421
    47  H    0.380800
    48  O   -0.742414
    49  H    0.340346
    50  O   -0.691585
    51  H    0.367884
 Sum of Mulliken charges =  -0.00000
 Mulliken charges with hydrogens summed into heavy atoms:
               1
     1  Si   1.294577
     2  O   -0.648022
     3  O   -0.649973
     4  O   -0.648979
     5  O   -0.755583
     6  Zr   1.613384
     7  Si   1.122923
     8  Si   1.162533
     9  Si   1.135785
    10  O   -0.820650
    11  Zr   1.494211
    12  O   -0.863739
    13  Zr   1.591931
    14  O   -0.827912
    15  Zr   1.550532
    16  O   -0.288981
    17  O   -0.237584
    18  O   -0.300600
    19  O   -0.282088
    20  O   -0.240397
    21  O   -0.262931
    22  O   -0.244059
    23  O   -0.298246
    24  O   -0.251239
    34  O   -0.362656
    36  O   -0.341313
    38  O   -0.418000
    40  O   -0.391747
    42  O   -0.359992
    44  O   -0.363796
    46  O   -0.381622
    48  O   -0.402068
    50  O   -0.323701
 Electronic spatial extent (au):  <R**2>=          25092.2312
 Charge=             -0.0000 electrons
 Dipole moment (field-independent basis, Debye):
    X=              2.1223    Y=              4.4642    Z=              0.8820  Tot=              5.0211
 Quadrupole moment (field-independent basis, Debye-Ang):
   XX=           -295.1016   YY=           -258.1229   ZZ=           -261.4436
   XY=              3.1579   XZ=              7.4954   YZ=             -8.1970
 Traceless Quadrupole moment (field-independent basis, Debye-Ang):
   XX=            -23.5456   YY=             13.4332   ZZ=             10.1124
   XY=              3.1579   XZ=              7.4954   YZ=             -8.1970
 Octapole moment (field-independent basis, Debye-Ang**2):
  XXX=            325.8200  YYY=            102.9632  ZZZ=            -42.0080  XYY=            157.8985
  XXY=             63.3418  XXZ=            -28.5481  XZZ=            123.2384  YZZ=             10.4876
  YYZ=            -18.6826  XYZ=             58.6251
 Hexadecapole moment (field-independent basis, Debye-Ang**3):
 XXXX=         -22736.3998 YYYY=          -5722.7141 ZZZZ=          -4883.4925 XXXY=            121.9045
 XXXZ=            -21.0962 YYYX=             40.8348 YYYZ=             25.0063 ZZZX=             60.1709
 ZZZY=            -69.1083 XXYY=          -4671.3941 XXZZ=          -3816.3068 YYZZ=          -1735.1337
 XXYZ=           -512.7775 YYXZ=           -166.1532 ZZXY=            180.3531
 N-N= 5.665809216613D+03 E-N=-1.893225860301D+04  KE= 3.091318965403D+03
 1\1\GINC-GRA736\FOpt\RB3LYP\Gen\H18O25Si4Zr4\SARASHS\24-Jun-2020\0\\#n
  B3LYP/GEN PSEUDO=READ Opt(modredundant)\\Title\\0,1\Si,-2.7642210596,
 0.4854841321,-0.8209705127\O,-2.6407664564,-0.0728974516,0.7151487543\
 O,-3.705667768,1.8450549614,-0.8103583727\O,-3.4827215384,-0.675424615
 2,-1.7273299429\O,-1.2685207587,0.8438659955,-1.3380727294\Zr,0.623410
 9841,0.5572070811,-0.722260608\Si,-2.9276802324,-0.4056460881,2.282609
 1685\Si,-5.278922733,2.1130166669,-0.3933643891\Si,-4.6695032588,-1.80
 72014011,-1.4548338243\O,1.4351411158,-1.0408649327,-1.4394204539\Zr,3
 .0991060853,-2.2128570344,-1.4379826407\O,0.7733496845,0.2330527653,1.
 2695035931\Zr,2.0347597875,-0.8563849473,2.3231660729\O,1.8273040755,2
 .0758594422,-1.0762588101\Zr,3.655110134,2.7077219882,-0.6226517685\O,
 -6.3052935461,1.7658385759,-1.6455845421\O,-5.4174996207,3.6837391138,
 0.0495956014\O,-5.744794219,1.0956700592,0.8256889297\O,-3.4881398675,
 -1.9758643538,2.2618375564\O,-4.0031767581,0.6035181604,2.9804904816\O
 ,-1.4776260853,-0.3206711201,3.0693211732\O,-5.0126790079,-2.535450671
 5,-2.882558546\O,-6.0473792172,-1.0189687041,-0.9503751561\O,-4.231670
 8151,-2.8950182288,-0.3298190601\H,-6.3992520961,-0.3669874032,-1.5788
 631342\H,-4.2589664439,-2.8895279496,-3.3668362752\H,-3.9315982268,-2.
 6088635154,0.5527672475\H,-4.7463648858,0.8535570868,2.3946889664\H,-6
 .0293930033,0.2270543094,0.4707795686\H,-6.2487956791,2.3365701358,-2.
 4200677483\H,-4.5934533788,4.12218679,0.2878547204\H,-0.80737793,0.094
 3915842,2.4933763295\H,-4.0323157007,-2.2536175047,3.0071105037\O,3.37
 1396552,-2.6658125645,-3.3334549366\H,4.0034472981,-2.37359323,-3.9975
 04732\O,4.622307647,-1.0739763679,-1.0315679899\H,4.7917982033,-0.3078
 452779,-0.4469868421\O,3.017050261,-4.0880331071,-0.6611073172\H,3.127
 5365599,-4.8956329145,-1.1747495669\O,4.434805662,1.255074725,0.489735
 0838\H,4.3274710248,1.0413160923,1.4406194711\O,4.727486458,2.90378754
 56,-2.2459285446\H,5.1071187474,3.5209305369,-2.8758572158\O,3.5061298
 729,4.3621299944,0.3955628899\H,3.0129798102,5.0864327818,0.7853859861
 \O,2.7170096368,-2.2406699994,1.0506856511\H,2.7687140145,-3.215887653
 1,0.9926876331\O,3.5474293208,0.3053516597,2.9373820075\H,3.8422621094
 ,0.5918447682,3.8086929743\O,1.0130703036,-1.5684979064,3.8116977056\H
 ,0.0571149382,-1.4417620097,3.9509075894\\Version=ES64L-G16RevB.01\Sta
 te=1-A\HF=-3237.5675376\RMSD=9.131e-09\RMSF=3.425e-05\Dipole=0.8352012
 ,1.7592859,0.3312388\Quadrupole=-17.4156409,9.9343052,7.4813357,2.2821
 622,5.7835287,-6.1175347\PG=C01 [X(H18O25Si4Zr4)]\\@


 EXPERIENCE IS A WONDERFUL THING.  IT ENABLES
 YOU TO RECOGNIZE A MISTAKE WHEN YOU MAKE IT AGAIN.
           - BACK OF A SUGAR PACKET
 Job cpu time:       0 days 17 hours 55 minutes 48.4 seconds.
 Elapsed time:       0 days  1 hours  7 minutes 34.2 seconds.
 File lengths (MBytes):  RWF=    218 Int=      0 D2E=      0 Chk=     28 Scr=      1
 Normal termination of Gaussian 16 at Wed Jun 24 15:17:59 2020.
