 Entering Gaussian System, Link 0=g16
 Initial command:
 /opt/software/gaussian/g16.b01/l1.exe "/localscratch/sarashs.33453289.0/Gau-2302.inp" -scrdir="/localscratch/sarashs.33453289.0/"
 Entering Link 1 = /opt/software/gaussian/g16.b01/l1.exe PID=      2304.
  
 Copyright (c) 1988-2017, Gaussian, Inc.  All Rights Reserved.
  
 This is part of the Gaussian(R) 16 program.  It is based on
 the Gaussian(R) 09 system (copyright 2009, Gaussian, Inc.),
 the Gaussian(R) 03 system (copyright 2003, Gaussian, Inc.),
 the Gaussian(R) 98 system (copyright 1998, Gaussian, Inc.),
 the Gaussian(R) 94 system (copyright 1995, Gaussian, Inc.),
 the Gaussian 92(TM) system (copyright 1992, Gaussian, Inc.),
 the Gaussian 90(TM) system (copyright 1990, Gaussian, Inc.),
 the Gaussian 88(TM) system (copyright 1988, Gaussian, Inc.),
 the Gaussian 86(TM) system (copyright 1986, Carnegie Mellon
 University), and the Gaussian 82(TM) system (copyright 1983,
 Carnegie Mellon University). Gaussian is a federally registered
 trademark of Gaussian, Inc.
  
 This software contains proprietary and confidential information,
 including trade secrets, belonging to Gaussian, Inc.
  
 This software is provided under written license and may be
 used, copied, transmitted, or stored only in accord with that
 written license.
  
 The following legend is applicable only to US Government
 contracts under FAR:
  
                    RESTRICTED RIGHTS LEGEND
  
 Use, reproduction and disclosure by the US Government is
 subject to restrictions as set forth in subparagraphs (a)
 and (c) of the Commercial Computer Software - Restricted
 Rights clause in FAR 52.227-19.
  
 Gaussian, Inc.
 340 Quinnipiac St., Bldg. 40, Wallingford CT 06492
  
  
 ---------------------------------------------------------------
 Warning -- This program may not be used in any manner that
 competes with the business of Gaussian, Inc. or will provide
 assistance to any competitor of Gaussian, Inc.  The licensee
 of this program is prohibited from giving any competitor of
 Gaussian, Inc. access to this program.  By using this program,
 the user acknowledges that Gaussian, Inc. is engaged in the
 business of creating and licensing software in the field of
 computational chemistry and represents and warrants to the
 licensee that it is not a competitor of Gaussian, Inc. and that
 it will not use this program in any manner prohibited above.
 ---------------------------------------------------------------
  

 Cite this work as:
 Gaussian 16, Revision B.01,
 M. J. Frisch, G. W. Trucks, H. B. Schlegel, G. E. Scuseria, 
 M. A. Robb, J. R. Cheeseman, G. Scalmani, V. Barone, 
 G. A. Petersson, H. Nakatsuji, X. Li, M. Caricato, A. V. Marenich, 
 J. Bloino, B. G. Janesko, R. Gomperts, B. Mennucci, H. P. Hratchian, 
 J. V. Ortiz, A. F. Izmaylov, J. L. Sonnenberg, D. Williams-Young, 
 F. Ding, F. Lipparini, F. Egidi, J. Goings, B. Peng, A. Petrone, 
 T. Henderson, D. Ranasinghe, V. G. Zakrzewski, J. Gao, N. Rega, 
 G. Zheng, W. Liang, M. Hada, M. Ehara, K. Toyota, R. Fukuda, 
 J. Hasegawa, M. Ishida, T. Nakajima, Y. Honda, O. Kitao, H. Nakai, 
 T. Vreven, K. Throssell, J. A. Montgomery, Jr., J. E. Peralta, 
 F. Ogliaro, M. J. Bearpark, J. J. Heyd, E. N. Brothers, K. N. Kudin, 
 V. N. Staroverov, T. A. Keith, R. Kobayashi, J. Normand, 
 K. Raghavachari, A. P. Rendell, J. C. Burant, S. S. Iyengar, 
 J. Tomasi, M. Cossi, J. M. Millam, M. Klene, C. Adamo, R. Cammi, 
 J. W. Ochterski, R. L. Martin, K. Morokuma, O. Farkas, 
 J. B. Foresman, and D. J. Fox, Gaussian, Inc., Wallingford CT, 2016.
 
 ******************************************
 Gaussian 16:  ES64L-G16RevB.01 20-Dec-2017
                24-Jun-2020 
 ******************************************
 %NProcShared=16
 Will use up to   16 processors via shared memory.
 ------------------------------------------
 #n B3LYP/GEN PSEUDO=READ Opt(modredundant)
 ------------------------------------------
 1/18=120,19=15,26=3,38=1/1,3;
 2/9=110,12=2,17=6,18=5,40=1/2;
 3/5=7,11=2,16=1,17=8,25=1,30=1,71=1,74=-5/1,2,3;
 4//1;
 5/5=2,38=5/2;
 6/7=2,8=2,9=2,10=2,28=1/1;
 7//1,2,3,16;
 1/18=20,19=15,26=3/3(2);
 2/9=110/2;
 99//99;
 2/9=110/2;
 3/5=7,6=1,11=2,16=1,17=8,25=1,30=1,71=1,74=-5,82=7/1,2,3;
 4/5=5,16=3,69=1/1;
 5/5=2,38=5/2;
 7//1,2,3,16;
 1/18=20,19=15,26=3/3(-5);
 2/9=110/2;
 6/7=2,8=2,9=2,10=2,19=2,28=1/1;
 99/9=1/99;
 -----
 Title
 -----
 Symbolic Z-matrix:
 Charge =  0 Multiplicity = 1
 Si                   -2.76356   0.50373  -0.80236 
 O                    -2.64408  -0.06281   0.73154 
 O                    -3.71347   1.8573   -0.78988 
 O                    -3.46982  -0.65647  -1.71915 
 O                    -1.26704   0.87374  -1.30905 
 Zr                    0.60388   0.56245  -0.64016 
 Si                   -2.95182  -0.40071   2.29443 
 Si                   -5.29329   2.11319  -0.39088 
 Si                   -4.65193  -1.79724  -1.46558 
 O                     1.40988  -1.04857  -1.33388 
 Zr                    3.06065  -2.23876  -1.29649 
 O                     0.70822   0.24301   1.35573 
 Zr                    1.93738  -0.8552    2.43797 
 O                     1.83653   2.06228  -0.97329 
 Zr                    3.66245   2.67388  -0.48545 
 O                    -6.30259   1.76732  -1.65717 
 O                    -5.44687   3.68028   0.05984 
 O                    -5.76721   1.08545   0.81639 
 O                    -3.50601  -1.97299   2.26095 
 O                    -4.03994   0.60192   2.98173 
 O                    -1.51274  -0.31185   3.10045 
 O                    -4.9739   -2.52135  -2.90029 
 O                    -6.04082  -1.02047  -0.97357 
 O                    -4.21989  -2.88703  -0.34024 
 H                    -6.38886  -0.36717  -1.60281 
 H                    -4.21233  -2.86813  -3.37752 
 H                    -3.92943  -2.60256   0.54609 
 H                    -4.78107   0.84544   2.39047 
 H                    -6.04405   0.21773   0.45311 
 H                    -6.24075   2.34318  -2.42744 
 H                    -4.62851   4.12226   0.31086 
 H                    -0.83615   0.10482   2.53314 
 H                    -4.05643  -2.25627   2.99954 
 O                     3.36306  -2.70291  -3.18466 
 H                     4.01033  -2.42089  -3.83837 
 O                     4.58878  -1.11497  -0.86669 
 H                     4.75651  -0.35195  -0.27756 
 O                     2.94318  -4.10935  -0.5134 
 H                     3.0537   -4.92043  -1.02153 
 O                     4.40209   1.21741   0.64914 
 H                     4.272     1.01006   1.59855 
 O                     4.76979   2.85027  -2.08729 
 H                     5.16965   3.45986  -2.71203 
 O                     3.51272   4.33441   0.5226 
 H                     3.02027   5.0667    0.89811 
 O                     2.63234  -2.25016   1.18378 
 H                     2.67403  -3.22618   1.13196 
 O                     3.4488    0.29228   3.08129 
 H                     3.72895   0.57727   3.95792 
 O                     0.8788   -1.55566   3.90608 
 H                    -0.07969  -1.42514   4.0222 
 
 The following ModRedundant input section has been read:
 A       1       5       6 F                                                   
 

 GradGradGradGradGradGradGradGradGradGradGradGradGradGradGradGradGradGrad
 Berny optimization.
 Initialization pass.
                           ----------------------------
                           !    Initial Parameters    !
                           ! (Angstroms and Degrees)  !
 --------------------------                            --------------------------
 ! Name  Definition              Value          Derivative Info.                !
 --------------------------------------------------------------------------------
 ! R1    R(1,2)                  1.6395         estimate D2E/DX2                !
 ! R2    R(1,3)                  1.6537         estimate D2E/DX2                !
 ! R3    R(1,4)                  1.6387         estimate D2E/DX2                !
 ! R4    R(1,5)                  1.6227         estimate D2E/DX2                !
 ! R5    R(2,7)                  1.6283         estimate D2E/DX2                !
 ! R6    R(3,8)                  1.6494         estimate D2E/DX2                !
 ! R7    R(4,9)                  1.6622         estimate D2E/DX2                !
 ! R8    R(5,6)                  2.0111         estimate D2E/DX2                !
 ! R9    R(6,10)                 1.9304         estimate D2E/DX2                !
 ! R10   R(6,12)                 2.024          estimate D2E/DX2                !
 ! R11   R(6,14)                 1.9697         estimate D2E/DX2                !
 ! R12   R(7,19)                 1.6674         estimate D2E/DX2                !
 ! R13   R(7,20)                 1.6315         estimate D2E/DX2                !
 ! R14   R(7,21)                 1.6518         estimate D2E/DX2                !
 ! R15   R(8,16)                 1.6558         estimate D2E/DX2                !
 ! R16   R(8,17)                 1.6378         estimate D2E/DX2                !
 ! R17   R(8,18)                 1.6548         estimate D2E/DX2                !
 ! R18   R(9,22)                 1.639          estimate D2E/DX2                !
 ! R19   R(9,23)                 1.6657         estimate D2E/DX2                !
 ! R20   R(9,24)                 1.625          estimate D2E/DX2                !
 ! R21   R(10,11)                2.0354         estimate D2E/DX2                !
 ! R22   R(11,34)                1.9678         estimate D2E/DX2                !
 ! R23   R(11,36)                1.9449         estimate D2E/DX2                !
 ! R24   R(11,38)                2.0313         estimate D2E/DX2                !
 ! R25   R(12,13)                1.9718         estimate D2E/DX2                !
 ! R26   R(13,46)                2.0005         estimate D2E/DX2                !
 ! R27   R(13,48)                2.0037         estimate D2E/DX2                !
 ! R28   R(13,50)                1.9408         estimate D2E/DX2                !
 ! R29   R(14,15)                1.9865         estimate D2E/DX2                !
 ! R30   R(15,40)                1.9889         estimate D2E/DX2                !
 ! R31   R(15,42)                1.9553         estimate D2E/DX2                !
 ! R32   R(15,44)                1.9483         estimate D2E/DX2                !
 ! R33   R(16,30)                0.9637         estimate D2E/DX2                !
 ! R34   R(17,31)                0.9634         estimate D2E/DX2                !
 ! R35   R(18,29)                0.9806         estimate D2E/DX2                !
 ! R36   R(19,33)                0.9637         estimate D2E/DX2                !
 ! R37   R(20,28)                0.9789         estimate D2E/DX2                !
 ! R38   R(21,32)                0.9763         estimate D2E/DX2                !
 ! R39   R(22,26)                0.9633         estimate D2E/DX2                !
 ! R40   R(23,25)                0.9715         estimate D2E/DX2                !
 ! R41   R(24,27)                0.9751         estimate D2E/DX2                !
 ! R42   R(34,35)                0.9622         estimate D2E/DX2                !
 ! R43   R(36,37)                0.9785         estimate D2E/DX2                !
 ! R44   R(38,39)                0.9635         estimate D2E/DX2                !
 ! R45   R(40,41)                0.9805         estimate D2E/DX2                !
 ! R46   R(42,43)                0.9601         estimate D2E/DX2                !
 ! R47   R(44,45)                0.959          estimate D2E/DX2                !
 ! R48   R(46,47)                0.9783         estimate D2E/DX2                !
 ! R49   R(48,49)                0.9634         estimate D2E/DX2                !
 ! R50   R(50,51)                0.9743         estimate D2E/DX2                !
 ! A1    A(2,1,3)              108.5202         estimate D2E/DX2                !
 ! A2    A(2,1,4)              108.0696         estimate D2E/DX2                !
 ! A3    A(2,1,5)              107.6808         estimate D2E/DX2                !
 ! A4    A(3,1,4)              109.6434         estimate D2E/DX2                !
 ! A5    A(3,1,5)              110.2104         estimate D2E/DX2                !
 ! A6    A(4,1,5)              112.595          estimate D2E/DX2                !
 ! A7    A(1,2,7)              162.9195         estimate D2E/DX2                !
 ! A8    A(1,3,8)              132.766          estimate D2E/DX2                !
 ! A9    A(1,4,9)              134.9946         estimate D2E/DX2                !
 ! A10   A(1,5,6)              135.9546         Frozen                          !
 ! A11   A(5,6,10)             113.4583         estimate D2E/DX2                !
 ! A12   A(5,6,12)             113.6009         estimate D2E/DX2                !
 ! A13   A(5,6,14)             114.0828         estimate D2E/DX2                !
 ! A14   A(10,6,12)            101.6038         estimate D2E/DX2                !
 ! A15   A(10,6,14)            108.2642         estimate D2E/DX2                !
 ! A16   A(12,6,14)            104.7552         estimate D2E/DX2                !
 ! A17   A(2,7,19)             103.84           estimate D2E/DX2                !
 ! A18   A(2,7,20)             113.7575         estimate D2E/DX2                !
 ! A19   A(2,7,21)             107.0096         estimate D2E/DX2                !
 ! A20   A(19,7,20)            111.4863         estimate D2E/DX2                !
 ! A21   A(19,7,21)            110.4922         estimate D2E/DX2                !
 ! A22   A(20,7,21)            110.0253         estimate D2E/DX2                !
 ! A23   A(3,8,16)             111.4953         estimate D2E/DX2                !
 ! A24   A(3,8,17)             107.7477         estimate D2E/DX2                !
 ! A25   A(3,8,18)             110.7593         estimate D2E/DX2                !
 ! A26   A(16,8,17)            110.6802         estimate D2E/DX2                !
 ! A27   A(16,8,18)            104.6923         estimate D2E/DX2                !
 ! A28   A(17,8,18)            111.5071         estimate D2E/DX2                !
 ! A29   A(4,9,22)             108.021          estimate D2E/DX2                !
 ! A30   A(4,9,23)             108.5421         estimate D2E/DX2                !
 ! A31   A(4,9,24)             112.1363         estimate D2E/DX2                !
 ! A32   A(22,9,23)            107.505          estimate D2E/DX2                !
 ! A33   A(22,9,24)            111.2311         estimate D2E/DX2                !
 ! A34   A(23,9,24)            109.2613         estimate D2E/DX2                !
 ! A35   A(6,10,11)            145.0882         estimate D2E/DX2                !
 ! A36   A(10,11,34)           104.1782         estimate D2E/DX2                !
 ! A37   A(10,11,36)           107.6625         estimate D2E/DX2                !
 ! A38   A(10,11,38)           119.9111         estimate D2E/DX2                !
 ! A39   A(34,11,36)           103.1551         estimate D2E/DX2                !
 ! A40   A(34,11,38)            99.2993         estimate D2E/DX2                !
 ! A41   A(36,11,38)           119.4941         estimate D2E/DX2                !
 ! A42   A(6,12,13)            131.3966         estimate D2E/DX2                !
 ! A43   A(12,13,46)           105.1189         estimate D2E/DX2                !
 ! A44   A(12,13,48)           109.115          estimate D2E/DX2                !
 ! A45   A(12,13,50)           106.0328         estimate D2E/DX2                !
 ! A46   A(46,13,48)           109.7902         estimate D2E/DX2                !
 ! A47   A(46,13,50)           114.335          estimate D2E/DX2                !
 ! A48   A(48,13,50)           112.0396         estimate D2E/DX2                !
 ! A49   A(6,14,15)            140.1851         estimate D2E/DX2                !
 ! A50   A(14,15,40)           104.8603         estimate D2E/DX2                !
 ! A51   A(14,15,42)           110.3127         estimate D2E/DX2                !
 ! A52   A(14,15,44)           108.5922         estimate D2E/DX2                !
 ! A53   A(40,15,42)           108.832          estimate D2E/DX2                !
 ! A54   A(40,15,44)           110.9504         estimate D2E/DX2                !
 ! A55   A(42,15,44)           112.9857         estimate D2E/DX2                !
 ! A56   A(8,16,30)            116.5711         estimate D2E/DX2                !
 ! A57   A(8,17,31)            115.5324         estimate D2E/DX2                !
 ! A58   A(8,18,29)            111.1097         estimate D2E/DX2                !
 ! A59   A(7,19,33)            116.8474         estimate D2E/DX2                !
 ! A60   A(7,20,28)            113.7913         estimate D2E/DX2                !
 ! A61   A(7,21,32)            110.0697         estimate D2E/DX2                !
 ! A62   A(9,22,26)            115.9371         estimate D2E/DX2                !
 ! A63   A(9,23,25)            114.8968         estimate D2E/DX2                !
 ! A64   A(9,24,27)            120.8639         estimate D2E/DX2                !
 ! A65   A(11,34,35)           133.3267         estimate D2E/DX2                !
 ! A66   A(11,36,37)           135.915          estimate D2E/DX2                !
 ! A67   A(11,38,39)           124.4221         estimate D2E/DX2                !
 ! A68   A(15,40,41)           131.142          estimate D2E/DX2                !
 ! A69   A(15,42,43)           145.712          estimate D2E/DX2                !
 ! A70   A(15,44,45)           153.2301         estimate D2E/DX2                !
 ! A71   A(13,46,47)           138.0491         estimate D2E/DX2                !
 ! A72   A(13,48,49)           132.9123         estimate D2E/DX2                !
 ! A73   A(13,50,51)           125.3389         estimate D2E/DX2                !
 ! D1    D(3,1,2,7)             26.3443         estimate D2E/DX2                !
 ! D2    D(4,1,2,7)            -92.4856         estimate D2E/DX2                !
 ! D3    D(5,1,2,7)            145.6313         estimate D2E/DX2                !
 ! D4    D(2,1,3,8)            -62.7632         estimate D2E/DX2                !
 ! D5    D(4,1,3,8)             55.0697         estimate D2E/DX2                !
 ! D6    D(5,1,3,8)            179.5501         estimate D2E/DX2                !
 ! D7    D(2,1,4,9)             35.4977         estimate D2E/DX2                !
 ! D8    D(3,1,4,9)            -82.6158         estimate D2E/DX2                !
 ! D9    D(5,1,4,9)            154.3011         estimate D2E/DX2                !
 ! D10   D(2,1,5,6)             10.7573         estimate D2E/DX2                !
 ! D11   D(3,1,5,6)            128.9613         estimate D2E/DX2                !
 ! D12   D(4,1,5,6)           -108.2731         estimate D2E/DX2                !
 ! D13   D(1,2,7,19)           100.9483         estimate D2E/DX2                !
 ! D14   D(1,2,7,20)           -20.4241         estimate D2E/DX2                !
 ! D15   D(1,2,7,21)          -142.1534         estimate D2E/DX2                !
 ! D16   D(1,3,8,16)           -83.6614         estimate D2E/DX2                !
 ! D17   D(1,3,8,17)           154.7            estimate D2E/DX2                !
 ! D18   D(1,3,8,18)            32.4929         estimate D2E/DX2                !
 ! D19   D(1,4,9,22)           173.7129         estimate D2E/DX2                !
 ! D20   D(1,4,9,23)            57.4339         estimate D2E/DX2                !
 ! D21   D(1,4,9,24)           -63.3679         estimate D2E/DX2                !
 ! D22   D(1,5,6,10)            91.8732         estimate D2E/DX2                !
 ! D23   D(1,5,6,12)           -23.523          estimate D2E/DX2                !
 ! D24   D(1,5,6,14)          -143.5044         estimate D2E/DX2                !
 ! D25   D(5,6,10,11)         -177.8675         estimate D2E/DX2                !
 ! D26   D(12,6,10,11)         -55.5474         estimate D2E/DX2                !
 ! D27   D(14,6,10,11)          54.4249         estimate D2E/DX2                !
 ! D28   D(5,6,12,13)          148.1494         estimate D2E/DX2                !
 ! D29   D(10,6,12,13)          25.9277         estimate D2E/DX2                !
 ! D30   D(14,6,12,13)         -86.7118         estimate D2E/DX2                !
 ! D31   D(5,6,14,15)          169.9963         estimate D2E/DX2                !
 ! D32   D(10,6,14,15)         -62.6541         estimate D2E/DX2                !
 ! D33   D(12,6,14,15)          45.1617         estimate D2E/DX2                !
 ! D34   D(2,7,19,33)         -156.8425         estimate D2E/DX2                !
 ! D35   D(20,7,19,33)         -33.9627         estimate D2E/DX2                !
 ! D36   D(21,7,19,33)          88.7198         estimate D2E/DX2                !
 ! D37   D(2,7,20,28)           39.0047         estimate D2E/DX2                !
 ! D38   D(19,7,20,28)         -78.0052         estimate D2E/DX2                !
 ! D39   D(21,7,20,28)         159.0451         estimate D2E/DX2                !
 ! D40   D(2,7,21,32)           12.2859         estimate D2E/DX2                !
 ! D41   D(19,7,21,32)         124.7052         estimate D2E/DX2                !
 ! D42   D(20,7,21,32)        -111.7631         estimate D2E/DX2                !
 ! D43   D(3,8,16,30)          -66.936          estimate D2E/DX2                !
 ! D44   D(17,8,16,30)          52.9866         estimate D2E/DX2                !
 ! D45   D(18,8,16,30)         173.2574         estimate D2E/DX2                !
 ! D46   D(3,8,17,31)          -19.3558         estimate D2E/DX2                !
 ! D47   D(16,8,17,31)        -141.4996         estimate D2E/DX2                !
 ! D48   D(18,8,17,31)         102.3883         estimate D2E/DX2                !
 ! D49   D(3,8,18,29)          -84.4645         estimate D2E/DX2                !
 ! D50   D(16,8,18,29)          35.8337         estimate D2E/DX2                !
 ! D51   D(17,8,18,29)         155.5519         estimate D2E/DX2                !
 ! D52   D(4,9,22,26)           52.0376         estimate D2E/DX2                !
 ! D53   D(23,9,22,26)         168.99           estimate D2E/DX2                !
 ! D54   D(24,9,22,26)         -71.4318         estimate D2E/DX2                !
 ! D55   D(4,9,23,25)           59.2735         estimate D2E/DX2                !
 ! D56   D(22,9,23,25)         -57.3378         estimate D2E/DX2                !
 ! D57   D(24,9,23,25)        -178.1643         estimate D2E/DX2                !
 ! D58   D(4,9,24,27)           54.0597         estimate D2E/DX2                !
 ! D59   D(22,9,24,27)         175.1468         estimate D2E/DX2                !
 ! D60   D(23,9,24,27)         -66.3256         estimate D2E/DX2                !
 ! D61   D(6,10,11,34)        -136.8778         estimate D2E/DX2                !
 ! D62   D(6,10,11,36)         -27.8035         estimate D2E/DX2                !
 ! D63   D(6,10,11,38)         113.3905         estimate D2E/DX2                !
 ! D64   D(10,11,34,35)        105.9351         estimate D2E/DX2                !
 ! D65   D(36,11,34,35)         -6.4247         estimate D2E/DX2                !
 ! D66   D(38,11,34,35)       -129.8333         estimate D2E/DX2                !
 ! D67   D(10,11,36,37)         37.7969         estimate D2E/DX2                !
 ! D68   D(34,11,36,37)        147.5766         estimate D2E/DX2                !
 ! D69   D(38,11,36,37)       -103.5876         estimate D2E/DX2                !
 ! D70   D(10,11,38,39)        114.2537         estimate D2E/DX2                !
 ! D71   D(34,11,38,39)          1.8866         estimate D2E/DX2                !
 ! D72   D(36,11,38,39)       -109.0648         estimate D2E/DX2                !
 ! D73   D(6,12,13,46)         -23.7696         estimate D2E/DX2                !
 ! D74   D(6,12,13,48)          93.9288         estimate D2E/DX2                !
 ! D75   D(6,12,13,50)        -145.22           estimate D2E/DX2                !
 ! D76   D(12,13,46,47)       -123.8175         estimate D2E/DX2                !
 ! D77   D(48,13,46,47)        118.9427         estimate D2E/DX2                !
 ! D78   D(50,13,46,47)         -7.9575         estimate D2E/DX2                !
 ! D79   D(12,13,48,49)        115.0452         estimate D2E/DX2                !
 ! D80   D(46,13,48,49)       -130.2415         estimate D2E/DX2                !
 ! D81   D(50,13,48,49)         -2.0617         estimate D2E/DX2                !
 ! D82   D(12,13,50,51)          3.8984         estimate D2E/DX2                !
 ! D83   D(46,13,50,51)       -111.4298         estimate D2E/DX2                !
 ! D84   D(48,13,50,51)        122.8397         estimate D2E/DX2                !
 ! D85   D(6,14,15,40)           2.4017         estimate D2E/DX2                !
 ! D86   D(6,14,15,42)         119.4234         estimate D2E/DX2                !
 ! D87   D(6,14,15,44)        -116.2547         estimate D2E/DX2                !
 ! D88   D(14,15,40,41)        -80.6705         estimate D2E/DX2                !
 ! D89   D(42,15,40,41)        161.2976         estimate D2E/DX2                !
 ! D90   D(44,15,40,41)         36.3817         estimate D2E/DX2                !
 ! D91   D(14,15,42,43)        104.4333         estimate D2E/DX2                !
 ! D92   D(40,15,42,43)       -141.0359         estimate D2E/DX2                !
 ! D93   D(44,15,42,43)        -17.3231         estimate D2E/DX2                !
 ! D94   D(14,15,44,45)         -4.8188         estimate D2E/DX2                !
 ! D95   D(40,15,44,45)       -119.5607         estimate D2E/DX2                !
 ! D96   D(42,15,44,45)        117.9012         estimate D2E/DX2                !
 --------------------------------------------------------------------------------
 Trust Radius=3.00D-01 FncErr=1.00D-07 GrdErr=1.00D-06 EigMax=2.50D+02 EigMin=1.00D-04
 Number of steps in this run=    229 maximum allowed number of steps=    306.
 GradGradGradGradGradGradGradGradGradGradGradGradGradGradGradGradGradGrad

 Stoichiometry    H18O25Si4Zr4
 Framework group  C1[X(H18O25Si4Zr4)]
 Deg. of freedom   147
 Full point group                 C1      NOp   1
 Largest Abelian subgroup         C1      NOp   1
 Largest concise Abelian subgroup C1      NOp   1
                         Standard orientation:                         
 ---------------------------------------------------------------------
 Center     Atomic      Atomic             Coordinates (Angstroms)
 Number     Number       Type             X           Y           Z
 ---------------------------------------------------------------------
      1         14           0       -2.756930    0.503385   -0.817281
      2          8           0       -2.622433   -0.058082    0.717241
      3          8           0       -3.707724    1.856284   -0.800153
      4          8           0       -3.470980   -0.660310   -1.723548
      5          8           0       -1.265582    0.872857   -1.339378
      6         40           0        0.611853    0.565128   -0.687308
      7         14           0       -2.915036   -0.391133    2.284074
      8         14           0       -5.283876    2.112296   -0.386976
      9         14           0       -4.649744   -1.801126   -1.455051
     10          8           0        1.412464   -1.047538   -1.383439
     11         40           0        3.064434   -2.236376   -1.357895
     12          8           0        0.735414    0.252249    1.308524
     13         40           0        1.975657   -0.841529    2.382577
     14          8           0        1.840121    2.064782   -1.037005
     15         40           0        3.670125    2.679317   -0.568539
     16          8           0       -6.304903    1.761568   -1.642481
     17          8           0       -5.434373    3.680728    0.060104
     18          8           0       -5.745500    1.088131    0.828071
     19          8           0       -3.468305   -1.963924    2.260962
     20          8           0       -3.997346    0.612917    2.978440
     21          8           0       -1.468426   -0.298589    3.076078
     22          8           0       -4.984782   -2.530130   -2.884280
     23          8           0       -6.034492   -1.023793   -0.952372
     24          8           0       -4.206181   -2.886935   -0.330345
     25          1           0       -6.389004   -0.372798   -1.580387
     26          1           0       -4.227517   -2.877894   -3.367605
     27          1           0       -3.907526   -2.599373    0.552255
     28          1           0       -4.744252    0.853966    2.393470
     29          1           0       -6.025112    0.219031    0.470254
     30          1           0       -6.250835    2.334969   -2.415167
     31          1           0       -4.614005    4.124127    0.301896
     32          1           0       -0.797583    0.116738    2.501011
     33          1           0       -4.011458   -2.245212    3.005667
     34          8           0        3.349234   -2.706431   -3.247342
     35          1           0        3.990041   -2.426056   -3.908090
     36          8           0        4.595713   -1.110064   -0.946293
     37          1           0        4.768448   -0.345010   -0.361261
     38          8           0        2.955860   -4.104500   -0.567666
     39          1           0        3.062170   -4.917144   -1.074194
     40          8           0        4.421644    1.227088    0.563678
     41          1           0        4.300748    1.022726    1.514950
     42          8           0        4.762046    2.851325   -2.181402
     43          1           0        5.155477    3.459179   -2.811889
     44          8           0        3.528704    4.343000    0.435504
     45          1           0        3.039282    5.076140    0.813306
     46          8           0        2.659737   -2.240039    1.126360
     47          1           0        2.701686   -3.216191    1.077309
     48          8           0        3.492239    0.309154    3.007770
     49          1           0        3.780492    0.597197    3.880768
     50          8           0        0.931626   -1.538002    3.862951
     51          1           0       -0.025817   -1.407817    3.987759
 ---------------------------------------------------------------------
 Rotational constants (GHZ):           0.0872572           0.0389340           0.0367034
 General basis read from cards:  (5D, 7F)
 ======================================================================================================
                                       Pseudopotential Parameters
 ======================================================================================================
  Center     Atomic      Valence      Angular      Power
  Number     Number     Electrons     Momentum     of R      Exponent        Coefficient   SO-Coeffient
 ======================================================================================================
    1         14
                                   No pseudopotential on this center.
    2          8
                                   No pseudopotential on this center.
    3          8
                                   No pseudopotential on this center.
    4          8
                                   No pseudopotential on this center.
    5          8
                                   No pseudopotential on this center.
    6         40           12
                                      F and up 
                                                     0      645.9321873       -0.04258430    0.00000000
                                                     1      134.7547401      -20.22224090    0.00000000
                                                     2       42.3074619     -101.86951720    0.00000000
                                                     2       12.0003227      -41.61957840    0.00000000
                                                     2        4.1260454       -4.69861600    0.00000000
                                      S - F
                                                     0      117.6251862        2.79105590    0.00000000
                                                     1       22.9646089       41.94894590    0.00000000
                                                     2        4.5225298       67.72718660    0.00000000
                                      P - F
                                                     0       47.1953145        4.99111440    0.00000000
                                                     1       48.0356033       20.71931720    0.00000000
                                                     2       19.4541456      195.58677580    0.00000000
                                                     2        4.0512875       48.28771760    0.00000000
                                      D - F
                                                     0       79.9073983        3.00492260    0.00000000
                                                     1       45.8263798       25.93779890    0.00000000
                                                     2       26.9903522      125.12449340    0.00000000
                                                     2        9.6835718       70.76340220    0.00000000
                                                     2        2.7995666       15.04928220    0.00000000
    7         14
                                   No pseudopotential on this center.
    8         14
                                   No pseudopotential on this center.
    9         14
                                   No pseudopotential on this center.
   10          8
                                   No pseudopotential on this center.
   11         40           12
                                      F and up 
                                                     0      645.9321873       -0.04258430    0.00000000
                                                     1      134.7547401      -20.22224090    0.00000000
                                                     2       42.3074619     -101.86951720    0.00000000
                                                     2       12.0003227      -41.61957840    0.00000000
                                                     2        4.1260454       -4.69861600    0.00000000
                                      S - F
                                                     0      117.6251862        2.79105590    0.00000000
                                                     1       22.9646089       41.94894590    0.00000000
                                                     2        4.5225298       67.72718660    0.00000000
                                      P - F
                                                     0       47.1953145        4.99111440    0.00000000
                                                     1       48.0356033       20.71931720    0.00000000
                                                     2       19.4541456      195.58677580    0.00000000
                                                     2        4.0512875       48.28771760    0.00000000
                                      D - F
                                                     0       79.9073983        3.00492260    0.00000000
                                                     1       45.8263798       25.93779890    0.00000000
                                                     2       26.9903522      125.12449340    0.00000000
                                                     2        9.6835718       70.76340220    0.00000000
                                                     2        2.7995666       15.04928220    0.00000000
   12          8
                                   No pseudopotential on this center.
   13         40           12
                                      F and up 
                                                     0      645.9321873       -0.04258430    0.00000000
                                                     1      134.7547401      -20.22224090    0.00000000
                                                     2       42.3074619     -101.86951720    0.00000000
                                                     2       12.0003227      -41.61957840    0.00000000
                                                     2        4.1260454       -4.69861600    0.00000000
                                      S - F
                                                     0      117.6251862        2.79105590    0.00000000
                                                     1       22.9646089       41.94894590    0.00000000
                                                     2        4.5225298       67.72718660    0.00000000
                                      P - F
                                                     0       47.1953145        4.99111440    0.00000000
                                                     1       48.0356033       20.71931720    0.00000000
                                                     2       19.4541456      195.58677580    0.00000000
                                                     2        4.0512875       48.28771760    0.00000000
                                      D - F
                                                     0       79.9073983        3.00492260    0.00000000
                                                     1       45.8263798       25.93779890    0.00000000
                                                     2       26.9903522      125.12449340    0.00000000
                                                     2        9.6835718       70.76340220    0.00000000
                                                     2        2.7995666       15.04928220    0.00000000
   14          8
                                   No pseudopotential on this center.
   15         40           12
                                      F and up 
                                                     0      645.9321873       -0.04258430    0.00000000
                                                     1      134.7547401      -20.22224090    0.00000000
                                                     2       42.3074619     -101.86951720    0.00000000
                                                     2       12.0003227      -41.61957840    0.00000000
                                                     2        4.1260454       -4.69861600    0.00000000
                                      S - F
                                                     0      117.6251862        2.79105590    0.00000000
                                                     1       22.9646089       41.94894590    0.00000000
                                                     2        4.5225298       67.72718660    0.00000000
                                      P - F
                                                     0       47.1953145        4.99111440    0.00000000
                                                     1       48.0356033       20.71931720    0.00000000
                                                     2       19.4541456      195.58677580    0.00000000
                                                     2        4.0512875       48.28771760    0.00000000
                                      D - F
                                                     0       79.9073983        3.00492260    0.00000000
                                                     1       45.8263798       25.93779890    0.00000000
                                                     2       26.9903522      125.12449340    0.00000000
                                                     2        9.6835718       70.76340220    0.00000000
                                                     2        2.7995666       15.04928220    0.00000000
   16          8
                                   No pseudopotential on this center.
   17          8
                                   No pseudopotential on this center.
   18          8
                                   No pseudopotential on this center.
   19          8
                                   No pseudopotential on this center.
   20          8
                                   No pseudopotential on this center.
   21          8
                                   No pseudopotential on this center.
   22          8
                                   No pseudopotential on this center.
   23          8
                                   No pseudopotential on this center.
   24          8
                                   No pseudopotential on this center.
   25          1
                                   No pseudopotential on this center.
   26          1
                                   No pseudopotential on this center.
   27          1
                                   No pseudopotential on this center.
   28          1
                                   No pseudopotential on this center.
   29          1
                                   No pseudopotential on this center.
   30          1
                                   No pseudopotential on this center.
   31          1
                                   No pseudopotential on this center.
   32          1
                                   No pseudopotential on this center.
   33          1
                                   No pseudopotential on this center.
   34          8
                                   No pseudopotential on this center.
   35          1
                                   No pseudopotential on this center.
   36          8
                                   No pseudopotential on this center.
   37          1
                                   No pseudopotential on this center.
   38          8
                                   No pseudopotential on this center.
   39          1
                                   No pseudopotential on this center.
   40          8
                                   No pseudopotential on this center.
   41          1
                                   No pseudopotential on this center.
   42          8
                                   No pseudopotential on this center.
   43          1
                                   No pseudopotential on this center.
   44          8
                                   No pseudopotential on this center.
   45          1
                                   No pseudopotential on this center.
   46          8
                                   No pseudopotential on this center.
   47          1
                                   No pseudopotential on this center.
   48          8
                                   No pseudopotential on this center.
   49          1
                                   No pseudopotential on this center.
   50          8
                                   No pseudopotential on this center.
   51          1
                                   No pseudopotential on this center.
 ======================================================================================================
 There are   637 symmetry adapted cartesian basis functions of A   symmetry.
 There are   600 symmetry adapted basis functions of A   symmetry.
   600 basis functions,  1230 primitive gaussians,   637 cartesian basis functions
   161 alpha electrons      161 beta electrons
       nuclear repulsion energy      5675.7868319052 Hartrees.
 NAtoms=   51 NActive=   51 NUniq=   51 SFac= 1.00D+00 NAtFMM=   60 NAOKFM=F Big=F
 Integral buffers will be    131072 words long.
 Raffenetti 2 integral format.
 Two-electron integral symmetry is turned on.
 One-electron integrals computed using PRISM.
   1 Symmetry operations used in ECPInt.
 ECPInt:  NShTT=   21321 NPrTT=  126439 LenC2=   15431 LenP2D=   51900.
 LDataN:  DoStor=T MaxTD1= 5 Len=  102
 Number of processors reduced to  12 by ecpmxn.
 NBasis=   600 RedAO= T EigKep=  2.63D-03  NBF=   600
 NBsUse=   600 1.00D-06 EigRej= -1.00D+00 NBFU=   600
 Defaulting to unpruned grid for atomic number  40.
 Defaulting to unpruned grid for atomic number  40.
 Defaulting to unpruned grid for atomic number  40.
 ExpMin= 2.43D-02 ExpMax= 1.61D+04 ExpMxC= 2.43D+03 IAcc=3 IRadAn=         5 AccDes= 0.00D+00
 Harris functional with IExCor=  402 and IRadAn=       5 diagonalized for initial guess.
 HarFok:  IExCor=  402 AccDes= 0.00D+00 IRadAn=         5 IDoV= 1 UseB2=F ITyADJ=14
 ICtDFT=  3500011 ScaDFX=  1.000000  1.000000  1.000000  1.000000
 Defaulting to unpruned grid for atomic number  40.
 FoFCou: FMM=F IPFlag=           0 FMFlag=      100000 FMFlg1=           0
         NFxFlg=           0 DoJE=T BraDBF=F KetDBF=T FulRan=T
         wScrn=  0.000000 ICntrl=       500 IOpCl=  0 I1Cent=   200000004 NGrid=           0
         NMat0=    1 NMatS0=      1 NMatT0=    0 NMatD0=    1 NMtDS0=    0 NMtDT0=    0
 Petite list used in FoFCou.
 Requested convergence on RMS density matrix=1.00D-08 within 128 cycles.
 Requested convergence on MAX density matrix=1.00D-06.
 Requested convergence on             energy=1.00D-06.
 No special actions if energy rises.
 Defaulting to unpruned grid for atomic number  40.
 Defaulting to unpruned grid for atomic number  40.
 Defaulting to unpruned grid for atomic number  40.
 Defaulting to unpruned grid for atomic number  40.
 Defaulting to unpruned grid for atomic number  40.
 Defaulting to unpruned grid for atomic number  40.
 Defaulting to unpruned grid for atomic number  40.
 Defaulting to unpruned grid for atomic number  40.
 Defaulting to unpruned grid for atomic number  40.
 Defaulting to unpruned grid for atomic number  40.
 Defaulting to unpruned grid for atomic number  40.
 Defaulting to unpruned grid for atomic number  40.
 Defaulting to unpruned grid for atomic number  40.
 Defaulting to unpruned grid for atomic number  40.
 Defaulting to unpruned grid for atomic number  40.
 Defaulting to unpruned grid for atomic number  40.
 SCF Done:  E(RB3LYP) =  -3237.56736797     A.U. after   17 cycles
            NFock= 17  Conv=0.37D-08     -V/T= 2.0473

 **********************************************************************

            Population analysis using the SCF Density.

 **********************************************************************

 Orbital symmetries:
       Occupied  (A) (A) (A) (A) (A) (A) (A) (A) (A) (A) (A) (A)
                 (A) (A) (A) (A) (A) (A) (A) (A) (A) (A) (A) (A)
                 (A) (A) (A) (A) (A) (A) (A) (A) (A) (A) (A) (A)
                 (A) (A) (A) (A) (A) (A) (A) (A) (A) (A) (A) (A)
                 (A) (A) (A) (A) (A) (A) (A) (A) (A) (A) (A) (A)
                 (A) (A) (A) (A) (A) (A) (A) (A) (A) (A) (A) (A)
                 (A) (A) (A) (A) (A) (A) (A) (A) (A) (A) (A) (A)
                 (A) (A) (A) (A) (A) (A) (A) (A) (A) (A) (A) (A)
                 (A) (A) (A) (A) (A) (A) (A) (A) (A) (A) (A) (A)
                 (A) (A) (A) (A) (A) (A) (A) (A) (A) (A) (A) (A)
                 (A) (A) (A) (A) (A) (A) (A) (A) (A) (A) (A) (A)
                 (A) (A) (A) (A) (A) (A) (A) (A) (A) (A) (A) (A)
                 (A) (A) (A) (A) (A) (A) (A) (A) (A) (A) (A) (A)
                 (A) (A) (A) (A) (A)
       Virtual   (A) (A) (A) (A) (A) (A) (A) (A) (A) (A) (A) (A)
                 (A) (A) (A) (A) (A) (A) (A) (A) (A) (A) (A) (A)
                 (A) (A) (A) (A) (A) (A) (A) (A) (A) (A) (A) (A)
                 (A) (A) (A) (A) (A) (A) (A) (A) (A) (A) (A) (A)
                 (A) (A) (A) (A) (A) (A) (A) (A) (A) (A) (A) (A)
                 (A) (A) (A) (A) (A) (A) (A) (A) (A) (A) (A) (A)
                 (A) (A) (A) (A) (A) (A) (A) (A) (A) (A) (A) (A)
                 (A) (A) (A) (A) (A) (A) (A) (A) (A) (A) (A) (A)
                 (A) (A) (A) (A) (A) (A) (A) (A) (A) (A) (A) (A)
                 (A) (A) (A) (A) (A) (A) (A) (A) (A) (A) (A) (A)
                 (A) (A) (A) (A) (A) (A) (A) (A) (A) (A) (A) (A)
                 (A) (A) (A) (A) (A) (A) (A) (A) (A) (A) (A) (A)
                 (A) (A) (A) (A) (A) (A) (A) (A) (A) (A) (A) (A)
                 (A) (A) (A) (A) (A) (A) (A) (A) (A) (A) (A) (A)
                 (A) (A) (A) (A) (A) (A) (A) (A) (A) (A) (A) (A)
                 (A) (A) (A) (A) (A) (A) (A) (A) (A) (A) (A) (A)
                 (A) (A) (A) (A) (A) (A) (A) (A) (A) (A) (A) (A)
                 (A) (A) (A) (A) (A) (A) (A) (A) (A) (A) (A) (A)
                 (A) (A) (A) (A) (A) (A) (A) (A) (A) (A) (A) (A)
                 (A) (A) (A) (A) (A) (A) (A) (A) (A) (A) (A) (A)
                 (A) (A) (A) (A) (A) (A) (A) (A) (A) (A) (A) (A)
                 (A) (A) (A) (A) (A) (A) (A) (A) (A) (A) (A) (A)
                 (A) (A) (A) (A) (A) (A) (A) (A) (A) (A) (A) (A)
                 (A) (A) (A) (A) (A) (A) (A) (A) (A) (A) (A) (A)
                 (A) (A) (A) (A) (A) (A) (A) (A) (A) (A) (A) (A)
                 (A) (A) (A) (A) (A) (A) (A) (A) (A) (A) (A) (A)
                 (A) (A) (A) (A) (A) (A) (A) (A) (A) (A) (A) (A)
                 (A) (A) (A) (A) (A) (A) (A) (A) (A) (A) (A) (A)
                 (A) (A) (A) (A) (A) (A) (A) (A) (A) (A) (A) (A)
                 (A) (A) (A) (A) (A) (A) (A) (A) (A) (A) (A) (A)
                 (A) (A) (A) (A) (A) (A) (A) (A) (A) (A) (A) (A)
                 (A) (A) (A) (A) (A) (A) (A) (A) (A) (A) (A) (A)
                 (A) (A) (A) (A) (A) (A) (A) (A) (A) (A) (A) (A)
                 (A) (A) (A) (A) (A) (A) (A) (A) (A) (A) (A) (A)
                 (A) (A) (A) (A) (A) (A) (A) (A) (A) (A) (A) (A)
                 (A) (A) (A) (A) (A) (A) (A) (A) (A) (A) (A) (A)
                 (A) (A) (A) (A) (A) (A) (A)
 The electronic state is 1-A.
 Alpha  occ. eigenvalues --  -66.22082 -66.21866 -66.21395 -66.20216 -19.17159
 Alpha  occ. eigenvalues --  -19.17054 -19.16380 -19.16374 -19.16165 -19.16003
 Alpha  occ. eigenvalues --  -19.15880 -19.15738 -19.15702 -19.15660 -19.15563
 Alpha  occ. eigenvalues --  -19.15267 -19.15196 -19.14703 -19.14600 -19.14334
 Alpha  occ. eigenvalues --  -19.14287 -19.14285 -19.14264 -19.14104 -19.13401
 Alpha  occ. eigenvalues --  -19.13213 -19.12577 -19.12127 -19.11636  -5.36098
 Alpha  occ. eigenvalues --   -5.36046  -5.35588  -5.34425  -3.72076  -3.72061
 Alpha  occ. eigenvalues --   -3.72037  -3.72007  -3.72004  -3.71938  -3.71651
 Alpha  occ. eigenvalues --   -3.71505  -3.71431  -3.70419  -3.70372  -3.70300
 Alpha  occ. eigenvalues --   -2.08242  -2.06958  -2.06816  -2.05085  -1.29292
 Alpha  occ. eigenvalues --   -1.28922  -1.28498  -1.27992  -1.27767  -1.27695
 Alpha  occ. eigenvalues --   -1.27186  -1.27168  -1.26753  -1.25729  -1.25477
 Alpha  occ. eigenvalues --   -1.25139  -1.05313  -1.04367  -1.03100  -1.01968
 Alpha  occ. eigenvalues --   -1.01460  -1.01193  -1.01020  -0.99774  -0.99518
 Alpha  occ. eigenvalues --   -0.98800  -0.98569  -0.98317  -0.97957  -0.97416
 Alpha  occ. eigenvalues --   -0.96692  -0.96208  -0.95483  -0.95085  -0.94968
 Alpha  occ. eigenvalues --   -0.93891  -0.93669  -0.92088  -0.91273  -0.89543
 Alpha  occ. eigenvalues --   -0.88453  -0.61707  -0.59621  -0.58825  -0.55925
 Alpha  occ. eigenvalues --   -0.54434  -0.53617  -0.52350  -0.52151  -0.51493
 Alpha  occ. eigenvalues --   -0.51360  -0.51044  -0.51032  -0.50804  -0.50231
 Alpha  occ. eigenvalues --   -0.50128  -0.49066  -0.48877  -0.47752  -0.46761
 Alpha  occ. eigenvalues --   -0.45642  -0.45565  -0.44779  -0.42809  -0.42076
 Alpha  occ. eigenvalues --   -0.41529  -0.41414  -0.40617  -0.40443  -0.40258
 Alpha  occ. eigenvalues --   -0.39709  -0.39578  -0.39218  -0.38974  -0.38438
 Alpha  occ. eigenvalues --   -0.37861  -0.37521  -0.37395  -0.37236  -0.36859
 Alpha  occ. eigenvalues --   -0.36698  -0.36133  -0.35993  -0.35782  -0.35633
 Alpha  occ. eigenvalues --   -0.35418  -0.35246  -0.35137  -0.34968  -0.34925
 Alpha  occ. eigenvalues --   -0.34662  -0.34278  -0.34218  -0.34098  -0.33925
 Alpha  occ. eigenvalues --   -0.33720  -0.33460  -0.33417  -0.33194  -0.33046
 Alpha  occ. eigenvalues --   -0.32864  -0.32592  -0.32535  -0.32237  -0.31986
 Alpha  occ. eigenvalues --   -0.31804  -0.31658  -0.31484  -0.31149  -0.31010
 Alpha  occ. eigenvalues --   -0.30811  -0.30763  -0.30201  -0.29530  -0.29137
 Alpha  occ. eigenvalues --   -0.28615
 Alpha virt. eigenvalues --   -0.05217  -0.04762  -0.04439  -0.03387  -0.02866
 Alpha virt. eigenvalues --   -0.02683  -0.01890  -0.01585  -0.01328  -0.01089
 Alpha virt. eigenvalues --   -0.00654  -0.00596  -0.00355   0.00040   0.00520
 Alpha virt. eigenvalues --    0.00671   0.00922   0.01416   0.01533   0.01807
 Alpha virt. eigenvalues --    0.02333   0.02481   0.02792   0.02957   0.03221
 Alpha virt. eigenvalues --    0.03800   0.04084   0.04213   0.05001   0.05443
 Alpha virt. eigenvalues --    0.05804   0.05843   0.06230   0.06570   0.07119
 Alpha virt. eigenvalues --    0.08118   0.08299   0.08677   0.09624   0.10256
 Alpha virt. eigenvalues --    0.10524   0.11226   0.11848   0.12486   0.12845
 Alpha virt. eigenvalues --    0.13443   0.13906   0.14586   0.15091   0.15282
 Alpha virt. eigenvalues --    0.15867   0.16273   0.16580   0.16843   0.16975
 Alpha virt. eigenvalues --    0.17574   0.18027   0.18168   0.18464   0.18756
 Alpha virt. eigenvalues --    0.19158   0.19436   0.19721   0.20301   0.20897
 Alpha virt. eigenvalues --    0.20983   0.21261   0.21520   0.22217   0.22298
 Alpha virt. eigenvalues --    0.22572   0.22790   0.22940   0.23321   0.24158
 Alpha virt. eigenvalues --    0.24243   0.24455   0.24843   0.25083   0.25665
 Alpha virt. eigenvalues --    0.26003   0.26679   0.26814   0.27478   0.27657
 Alpha virt. eigenvalues --    0.28321   0.28710   0.29364   0.30025   0.30092
 Alpha virt. eigenvalues --    0.30532   0.31153   0.31415   0.32037   0.32630
 Alpha virt. eigenvalues --    0.33388   0.33845   0.34127   0.34648   0.35185
 Alpha virt. eigenvalues --    0.36060   0.36655   0.36924   0.37561   0.38017
 Alpha virt. eigenvalues --    0.38424   0.39521   0.40910   0.41235   0.41838
 Alpha virt. eigenvalues --    0.42271   0.44572   0.45039   0.46529   0.46869
 Alpha virt. eigenvalues --    0.49257   0.49992   0.52075   0.55464   0.56380
 Alpha virt. eigenvalues --    0.58079   0.59572   0.60446   0.64632   0.66533
 Alpha virt. eigenvalues --    0.67467   0.76544   0.76826   0.78711   0.79667
 Alpha virt. eigenvalues --    0.80194   0.80957   0.81197   0.81976   0.82863
 Alpha virt. eigenvalues --    0.83716   0.84012   0.84771   0.85887   0.86786
 Alpha virt. eigenvalues --    0.86931   0.88056   0.88979   0.89595   0.90352
 Alpha virt. eigenvalues --    0.90755   0.91784   0.92147   0.92487   0.93190
 Alpha virt. eigenvalues --    0.93293   0.94024   0.94439   0.94898   0.95627
 Alpha virt. eigenvalues --    0.96306   0.96564   0.96766   0.97430   0.97523
 Alpha virt. eigenvalues --    0.97672   0.98199   0.98369   0.98661   0.99231
 Alpha virt. eigenvalues --    0.99378   1.00156   1.00717   1.00942   1.01314
 Alpha virt. eigenvalues --    1.02442   1.03008   1.03412   1.03540   1.03920
 Alpha virt. eigenvalues --    1.04737   1.05605   1.05870   1.06422   1.06601
 Alpha virt. eigenvalues --    1.07391   1.07641   1.08177   1.08760   1.08960
 Alpha virt. eigenvalues --    1.09452   1.09713   1.10324   1.10694   1.11081
 Alpha virt. eigenvalues --    1.12034   1.12792   1.13337   1.13948   1.14397
 Alpha virt. eigenvalues --    1.14999   1.15930   1.16299   1.16606   1.17319
 Alpha virt. eigenvalues --    1.17597   1.18228   1.18828   1.19086   1.19336
 Alpha virt. eigenvalues --    1.19668   1.20137   1.21043   1.21100   1.21768
 Alpha virt. eigenvalues --    1.21936   1.22609   1.23077   1.24032   1.24413
 Alpha virt. eigenvalues --    1.25710   1.26552   1.26888   1.27599   1.27970
 Alpha virt. eigenvalues --    1.29073   1.29642   1.30780   1.31216   1.32191
 Alpha virt. eigenvalues --    1.33775   1.34270   1.35317   1.36873   1.37879
 Alpha virt. eigenvalues --    1.42430   1.43407   1.44718   1.45453   1.47167
 Alpha virt. eigenvalues --    1.47795   1.49147   1.50275   1.50879   1.51105
 Alpha virt. eigenvalues --    1.51920   1.52385   1.53713   1.53939   1.54180
 Alpha virt. eigenvalues --    1.55124   1.55524   1.55959   1.56118   1.56702
 Alpha virt. eigenvalues --    1.56899   1.57417   1.57774   1.58301   1.58481
 Alpha virt. eigenvalues --    1.58737   1.58974   1.59557   1.60171   1.60457
 Alpha virt. eigenvalues --    1.61100   1.62144   1.62215   1.62525   1.62821
 Alpha virt. eigenvalues --    1.63280   1.63800   1.63988   1.64579   1.64924
 Alpha virt. eigenvalues --    1.65640   1.65876   1.66198   1.66803   1.66946
 Alpha virt. eigenvalues --    1.67523   1.68094   1.68720   1.70437   1.70803
 Alpha virt. eigenvalues --    1.71207   1.71724   1.71969   1.72538   1.72776
 Alpha virt. eigenvalues --    1.73423   1.73449   1.74306   1.74840   1.75340
 Alpha virt. eigenvalues --    1.75665   1.76411   1.77000   1.77520   1.77770
 Alpha virt. eigenvalues --    1.78232   1.78354   1.78594   1.78910   1.79395
 Alpha virt. eigenvalues --    1.79615   1.80501   1.80853   1.81152   1.81523
 Alpha virt. eigenvalues --    1.81643   1.82123   1.82314   1.82854   1.83050
 Alpha virt. eigenvalues --    1.83512   1.83748   1.84344   1.85216   1.85476
 Alpha virt. eigenvalues --    1.85717   1.86189   1.86383   1.86664   1.86920
 Alpha virt. eigenvalues --    1.87045   1.87547   1.87926   1.88603   1.89225
 Alpha virt. eigenvalues --    1.90126   1.90758   1.91004   1.91853   1.92696
 Alpha virt. eigenvalues --    1.92986   1.93222   1.94529   1.95135   1.97149
 Alpha virt. eigenvalues --    1.97502   1.98310   1.99434   2.01192   2.01580
 Alpha virt. eigenvalues --    2.04357   2.05561   2.08916   2.09201   2.11706
 Alpha virt. eigenvalues --    2.15030   2.19025   2.31699   2.33738   2.34042
 Alpha virt. eigenvalues --    2.34456   2.35021   2.35141   2.36282   2.36588
 Alpha virt. eigenvalues --    2.36988   2.37959   2.38169   2.39691   2.39833
 Alpha virt. eigenvalues --    2.40651   2.41032   2.41420   2.42453   2.44578
 Alpha virt. eigenvalues --    2.45052   2.46508   2.47959   2.49631   2.52230
 Alpha virt. eigenvalues --    2.55832   2.56802   2.58367   2.59252   2.59853
 Alpha virt. eigenvalues --    2.60135   2.60796   2.61414   2.61663   2.62003
 Alpha virt. eigenvalues --    2.62179   2.62418   2.62674   2.62949   2.63016
 Alpha virt. eigenvalues --    2.63108   2.63141   2.63537   2.63791   2.64155
 Alpha virt. eigenvalues --    2.64578   2.64696   2.65538   2.65620   2.65727
 Alpha virt. eigenvalues --    2.65963   2.67068   2.67540   2.68567   2.69305
 Alpha virt. eigenvalues --    2.69676   2.70543   2.71077   2.73079   2.74044
 Alpha virt. eigenvalues --    2.74619   2.74745   2.76786   2.76894   2.77556
 Alpha virt. eigenvalues --    2.77666   2.78520   2.82010   2.82700   2.84782
 Alpha virt. eigenvalues --    2.86747   2.93413   3.40468   3.40712   3.40916
 Alpha virt. eigenvalues --    3.41407   3.41983   3.43366   3.43860   3.45093
 Alpha virt. eigenvalues --    3.46073   3.46560   3.47253   3.47750   3.49172
 Alpha virt. eigenvalues --    3.49840   3.52101   3.54337   3.54935   3.55409
 Alpha virt. eigenvalues --    4.73078   6.24196   6.65077   7.77882
          Condensed to atoms (all electrons):
 Mulliken charges:
               1
     1  Si   1.295464
     2  O   -0.649453
     3  O   -0.649727
     4  O   -0.648740
     5  O   -0.754735
     6  Zr   1.612183
     7  Si   1.125144
     8  Si   1.163069
     9  Si   1.136000
    10  O   -0.820641
    11  Zr   1.494337
    12  O   -0.868279
    13  Zr   1.591293
    14  O   -0.827905
    15  Zr   1.550426
    16  O   -0.626906
    17  O   -0.574104
    18  O   -0.666404
    19  O   -0.626396
    20  O   -0.610327
    21  O   -0.648201
    22  O   -0.578162
    23  O   -0.653119
    24  O   -0.618512
    25  H    0.355016
    26  H    0.334221
    27  H    0.367311
    28  H    0.370400
    29  H    0.365519
    30  H    0.337909
    31  H    0.336673
    32  H    0.385373
    33  H    0.344330
    34  O   -0.695202
    35  H    0.332506
    36  O   -0.706881
    37  H    0.365713
    38  O   -0.749179
    39  H    0.331334
    40  O   -0.763559
    41  H    0.371884
    42  O   -0.694108
    43  H    0.334191
    44  O   -0.699119
    45  H    0.335380
    46  O   -0.762537
    47  H    0.380805
    48  O   -0.742533
    49  H    0.340331
    50  O   -0.691807
    51  H    0.369720
 Sum of Mulliken charges =  -0.00000
 Mulliken charges with hydrogens summed into heavy atoms:
               1
     1  Si   1.295464
     2  O   -0.649453
     3  O   -0.649727
     4  O   -0.648740
     5  O   -0.754735
     6  Zr   1.612183
     7  Si   1.125144
     8  Si   1.163069
     9  Si   1.136000
    10  O   -0.820641
    11  Zr   1.494337
    12  O   -0.868279
    13  Zr   1.591293
    14  O   -0.827905
    15  Zr   1.550426
    16  O   -0.288997
    17  O   -0.237431
    18  O   -0.300884
    19  O   -0.282066
    20  O   -0.239927
    21  O   -0.262828
    22  O   -0.243941
    23  O   -0.298102
    24  O   -0.251201
    34  O   -0.362697
    36  O   -0.341169
    38  O   -0.417845
    40  O   -0.391675
    42  O   -0.359916
    44  O   -0.363739
    46  O   -0.381732
    48  O   -0.402202
    50  O   -0.322087
 Electronic spatial extent (au):  <R**2>=          24952.6789
 Charge=             -0.0000 electrons
 Dipole moment (field-independent basis, Debye):
    X=              2.0634    Y=              4.4863    Z=              0.8348  Tot=              5.0081
 Quadrupole moment (field-independent basis, Debye-Ang):
   XX=           -294.5381   YY=           -258.2535   ZZ=           -261.4929
   XY=              3.2906   XZ=              7.2807   YZ=             -8.1799
 Traceless Quadrupole moment (field-independent basis, Debye-Ang):
   XX=            -23.1099   YY=             13.1747   ZZ=              9.9352
   XY=              3.2906   XZ=              7.2807   YZ=             -8.1799
 Octapole moment (field-independent basis, Debye-Ang**2):
  XXX=            322.9735  YYY=            102.2101  ZZZ=            -42.3271  XYY=            157.5232
  XXY=             65.5367  XXZ=            -31.2716  XZZ=            122.0460  YZZ=              9.4897
  YYZ=            -18.5305  XYZ=             58.3523
 Hexadecapole moment (field-independent basis, Debye-Ang**3):
 XXXX=         -22558.9085 YYYY=          -5698.6912 ZZZZ=          -4869.8125 XXXY=            122.6911
 XXXZ=            -12.5291 YYYX=             36.4502 YYYZ=             22.4663 ZZZX=             50.5657
 ZZZY=            -68.5816 XXYY=          -4644.4774 XXZZ=          -3784.2547 YYZZ=          -1733.4243
 XXYZ=           -508.3301 YYXZ=           -162.6306 ZZXY=            182.9582
 N-N= 5.675786831905D+03 E-N=-1.895220351991D+04  KE= 3.091335347702D+03
   1 Symmetry operations used in ECPInt.
 ECPInt:  NShTT=   21321 NPrTT=  126439 LenC2=   15431 LenP2D=   51900.
 LDataN:  DoStor=T MaxTD1= 6 Len=  172
 Number of processors reduced to  14 by ecpmxn.
 Calling FoFJK, ICntrl=      2127 FMM=F ISym2X=0 I1Cent= 0 IOpClX= 0 NMat=1 NMatS=1 NMatT=0.
 Defaulting to unpruned grid for atomic number  40.
 Defaulting to unpruned grid for atomic number  40.
 Defaulting to unpruned grid for atomic number  40.
 Defaulting to unpruned grid for atomic number  40.
 Defaulting to unpruned grid for atomic number  40.
 Defaulting to unpruned grid for atomic number  40.
 Defaulting to unpruned grid for atomic number  40.
 Defaulting to unpruned grid for atomic number  40.
 Defaulting to unpruned grid for atomic number  40.
 Defaulting to unpruned grid for atomic number  40.
 Defaulting to unpruned grid for atomic number  40.
 Defaulting to unpruned grid for atomic number  40.
 Defaulting to unpruned grid for atomic number  40.
 Defaulting to unpruned grid for atomic number  40.
 Defaulting to unpruned grid for atomic number  40.
 Defaulting to unpruned grid for atomic number  40.
 ***** Axes restored to original set *****
 -------------------------------------------------------------------
 Center     Atomic                   Forces (Hartrees/Bohr)
 Number     Number              X              Y              Z
 -------------------------------------------------------------------
      1       14          -0.000319899    0.000067329   -0.000288804
      2        8           0.000047171   -0.000036872   -0.000002068
      3        8           0.000020002   -0.000019200    0.000032195
      4        8           0.000012717    0.000003342    0.000035507
      5        8          -0.000090969   -0.000014517    0.000098758
      6       40           0.000333816    0.000026265   -0.000226945
      7       14          -0.000057985    0.000102651    0.000210096
      8       14          -0.000052046    0.000029361    0.000001533
      9       14          -0.000029636   -0.000019543   -0.000030188
     10        8          -0.000084077    0.000098431    0.000026578
     11       40           0.000046163   -0.000066588    0.000040586
     12        8           0.000175995    0.000448586   -0.000238682
     13       40           0.000502293   -0.000996140    0.001142978
     14        8          -0.000092858   -0.000070063    0.000000663
     15       40           0.000071793    0.000008805    0.000019107
     16        8           0.000010140   -0.000000733    0.000003222
     17        8           0.000005554   -0.000012909   -0.000000600
     18        8           0.000013368   -0.000009104    0.000003202
     19        8           0.000033871   -0.000027502    0.000010488
     20        8          -0.000029786   -0.000001976   -0.000035546
     21        8          -0.002854004   -0.000005868    0.000623565
     22        8           0.000006337    0.000003969    0.000007926
     23        8           0.000014716    0.000003138    0.000002759
     24        8           0.000010875    0.000011125    0.000017061
     25        1           0.000001823    0.000001795   -0.000000743
     26        1          -0.000002253   -0.000000846   -0.000002589
     27        1          -0.000014369   -0.000017291   -0.000018996
     28        1          -0.000017525    0.000008245    0.000007528
     29        1          -0.000010118   -0.000000497   -0.000001413
     30        1          -0.000001557   -0.000000685   -0.000000411
     31        1           0.000000088    0.000008072    0.000000033
     32        1           0.000475523    0.000426872   -0.000698671
     33        1          -0.000029779   -0.000010514   -0.000012495
     34        8          -0.000001057    0.000007981    0.000004085
     35        1           0.000000941    0.000000896   -0.000002864
     36        8          -0.000010224    0.000004276   -0.000017455
     37        1           0.000005764   -0.000004719    0.000007767
     38        8           0.000007828    0.000013123   -0.000026524
     39        1          -0.000000720    0.000001527   -0.000001355
     40        8          -0.000020508    0.000027831   -0.000038858
     41        1          -0.000008103   -0.000016095    0.000036572
     42        8          -0.000007497   -0.000000094    0.000007129
     43        1          -0.000000091    0.000000453    0.000000747
     44        8          -0.000003638   -0.000013230   -0.000009820
     45        1          -0.000001119    0.000009173    0.000008323
     46        8           0.000033035    0.000001372   -0.000079543
     47        1          -0.000015064    0.000004098    0.000027885
     48        8           0.000036019    0.000047927   -0.000040717
     49        1          -0.000016795   -0.000019622    0.000008193
     50        8           0.002110892   -0.000499443   -0.000193328
     51        1          -0.000205044    0.000497405   -0.000415872
 -------------------------------------------------------------------
 Cartesian Forces:  Max     0.002854004 RMS     0.000342928

 GradGradGradGradGradGradGradGradGradGradGradGradGradGradGradGradGradGrad
 Berny optimization.
 FormGI is forming the generalized inverse of G from B-inverse, IUseBI=4.
 Internal  Forces:  Max     0.020518103 RMS     0.002056349
 Search for a local minimum.
 Step number   1 out of a maximum of  229
 All quantities printed in internal units (Hartrees-Bohrs-Radians)
 Mixed Optimization -- RFO/linear search
 Second derivative matrix not updated -- first step.
 ITU=  0
     Eigenvalues ---    0.00230   0.00230   0.00230   0.00230   0.00230
     Eigenvalues ---    0.00230   0.00230   0.00230   0.00230   0.00230
     Eigenvalues ---    0.00230   0.00230   0.00230   0.00230   0.00230
     Eigenvalues ---    0.00230   0.03447   0.03470   0.03516   0.03601
     Eigenvalues ---    0.03614   0.03629   0.03654   0.03686   0.03816
     Eigenvalues ---    0.03823   0.03827   0.03839   0.03923   0.03964
     Eigenvalues ---    0.04008   0.04039   0.06239   0.08354   0.08564
     Eigenvalues ---    0.08974   0.09448   0.10123   0.10678   0.11232
     Eigenvalues ---    0.11368   0.11507   0.11595   0.11636   0.11773
     Eigenvalues ---    0.11825   0.11923   0.12003   0.12146   0.12566
     Eigenvalues ---    0.12661   0.12746   0.12781   0.12915   0.12948
     Eigenvalues ---    0.13420   0.16000   0.16000   0.16000   0.16000
     Eigenvalues ---    0.16000   0.16000   0.16000   0.16000   0.16000
     Eigenvalues ---    0.16000   0.16000   0.16000   0.16000   0.16000
     Eigenvalues ---    0.16000   0.16000   0.16000   0.16000   0.16475
     Eigenvalues ---    0.16653   0.16973   0.17555   0.17903   0.18059
     Eigenvalues ---    0.18629   0.18751   0.19259   0.19512   0.19624
     Eigenvalues ---    0.19663   0.19719   0.19731   0.19849   0.20192
     Eigenvalues ---    0.20247   0.20296   0.20320   0.20376   0.20393
     Eigenvalues ---    0.20422   0.20645   0.20651   0.20806   0.20824
     Eigenvalues ---    0.20868   0.21021   0.21050   0.21076   0.21270
     Eigenvalues ---    0.21906   0.25000   0.25000   0.25000   0.25000
     Eigenvalues ---    0.25000   0.25000   0.40115   0.40361   0.40848
     Eigenvalues ---    0.41777   0.41931   0.42098   0.42374   0.42741
     Eigenvalues ---    0.44274   0.44356   0.44406   0.44546   0.45586
     Eigenvalues ---    0.46106   0.46669   0.47064   0.51271   0.51296
     Eigenvalues ---    0.51607   0.51683   0.51720   0.52103   0.52343
     Eigenvalues ---    0.52512   0.53065   0.54681   0.54684   0.54735
     Eigenvalues ---    0.54744   0.54756   0.54764   0.55003   0.55452
     Eigenvalues ---    0.556801000.000001000.000001000.000001000.00000
     Eigenvalues --- 1000.000001000.000001000.000001000.000001000.00000
     Eigenvalues --- 1000.000001000.000001000.000001000.000001000.00000
     Eigenvalues --- 1000.000001000.000001000.000001000.000001000.00000
     Eigenvalues --- 1000.000001000.000001000.000001000.000001000.00000
     Eigenvalues --- 1000.000001000.000001000.000001000.000001000.00000
     Eigenvalues --- 1000.000001000.000001000.000001000.000001000.00000
     Eigenvalues --- 1000.000001000.000001000.000001000.000001000.00000
     Eigenvalues --- 1000.000001000.000001000.000001000.000001000.00000
     Eigenvalues --- 1000.000001000.000001000.000001000.000001000.00000
     Eigenvalues --- 1000.000001000.000001000.000001000.000001000.00000
     Eigenvalues --- 1000.000001000.000001000.000001000.000001000.00000
     Eigenvalues --- 1000.000001000.000001000.000001000.000001000.00000
     Eigenvalues --- 1000.000001000.000001000.000001000.000001000.00000
     Eigenvalues --- 1000.000001000.000001000.000001000.00000
 RFO step:  Lambda=-4.09793074D-03 EMin= 2.30000000D-03
 Linear search not attempted -- first point.
 Iteration  1 RMS(Cart)=  0.29268846 RMS(Int)=  0.00998508
 Iteration  2 RMS(Cart)=  0.03841530 RMS(Int)=  0.00020602
 Iteration  3 RMS(Cart)=  0.00066772 RMS(Int)=  0.00004868
 Iteration  4 RMS(Cart)=  0.00000022 RMS(Int)=  0.00004868
 Iteration  1 RMS(Cart)=  0.00000000 RMS(Int)=  0.00000000
 Variable       Old X    -DE/DX   Delta X   Delta X   Delta X     New X
                                 (Linear)    (Quad)   (Total)
    R1        3.09828  -0.00024   0.00000  -0.00054  -0.00054   3.09775
    R2        3.12499   0.00000   0.00000   0.00001   0.00001   3.12500
    R3        3.09671   0.00000   0.00000   0.00001   0.00001   3.09672
    R4        3.06649   0.00239   0.00000   0.00504   0.00504   3.07153
    R5        3.07712   0.00047   0.00000   0.00100   0.00100   3.07813
    R6        3.11691   0.00003   0.00000   0.00008   0.00008   3.11699
    R7        3.14118   0.00002   0.00000   0.00005   0.00005   3.14122
    R8        3.80049   0.00275   0.00000   0.01530   0.01530   3.81579
    R9        3.64784  -0.00007   0.00000  -0.00031  -0.00031   3.64753
   R10        3.82477   0.00043   0.00000   0.00245   0.00245   3.82722
   R11        3.72228  -0.00008   0.00000  -0.00042  -0.00042   3.72186
   R12        3.15098   0.00003   0.00000   0.00008   0.00008   3.15106
   R13        3.08301   0.00002   0.00000   0.00005   0.00005   3.08306
   R14        3.12149  -0.00209   0.00000  -0.00488  -0.00488   3.11662
   R15        3.12908  -0.00001   0.00000  -0.00001  -0.00001   3.12907
   R16        3.09506  -0.00001   0.00000  -0.00001  -0.00001   3.09505
   R17        3.12711   0.00001   0.00000   0.00001   0.00001   3.12712
   R18        3.09730  -0.00001   0.00000  -0.00002  -0.00002   3.09729
   R19        3.14766  -0.00001   0.00000  -0.00003  -0.00003   3.14764
   R20        3.07084   0.00000   0.00000   0.00001   0.00001   3.07085
   R21        3.84641   0.00007   0.00000   0.00040   0.00040   3.84681
   R22        3.71852  -0.00000   0.00000  -0.00002  -0.00002   3.71850
   R23        3.67541  -0.00001   0.00000  -0.00003  -0.00003   3.67538
   R24        3.83858  -0.00002   0.00000  -0.00013  -0.00013   3.83845
   R25        3.72623   0.00231   0.00000   0.01158   0.01158   3.73781
   R26        3.78034   0.00003   0.00000   0.00018   0.00018   3.78052
   R27        3.78651   0.00002   0.00000   0.00011   0.00011   3.78663
   R28        3.66752  -0.00150   0.00000  -0.00692  -0.00692   3.66060
   R29        3.75387   0.00004   0.00000   0.00020   0.00020   3.75407
   R30        3.75845  -0.00002   0.00000  -0.00011  -0.00011   3.75834
   R31        3.69499  -0.00001   0.00000  -0.00004  -0.00004   3.69494
   R32        3.68179  -0.00001   0.00000  -0.00003  -0.00003   3.68176
   R33        1.82117   0.00000   0.00000   0.00000   0.00000   1.82117
   R34        1.82049   0.00000   0.00000   0.00001   0.00001   1.82050
   R35        1.85304   0.00000   0.00000   0.00001   0.00001   1.85305
   R36        1.82114   0.00001   0.00000   0.00002   0.00002   1.82116
   R37        1.84977   0.00001   0.00000   0.00002   0.00002   1.84980
   R38        1.84500   0.00092   0.00000   0.00175   0.00175   1.84675
   R39        1.82042  -0.00000   0.00000  -0.00000  -0.00000   1.82042
   R40        1.83593   0.00000   0.00000   0.00000   0.00000   1.83593
   R41        1.84272  -0.00003   0.00000  -0.00005  -0.00005   1.84267
   R42        1.81830   0.00000   0.00000   0.00000   0.00000   1.81830
   R43        1.84904   0.00000   0.00000   0.00000   0.00000   1.84905
   R44        1.82068  -0.00000   0.00000  -0.00000  -0.00000   1.82068
   R45        1.85280   0.00004   0.00000   0.00008   0.00008   1.85287
   R46        1.81432  -0.00000   0.00000  -0.00000  -0.00000   1.81432
   R47        1.81233   0.00001   0.00000   0.00002   0.00002   1.81235
   R48        1.84869  -0.00001   0.00000  -0.00001  -0.00001   1.84868
   R49        1.82061  -0.00000   0.00000  -0.00001  -0.00001   1.82060
   R50        1.84112   0.00022   0.00000   0.00041   0.00041   1.84154
    A1        1.89403  -0.00351   0.00000  -0.01763  -0.01765   1.87639
    A2        1.88617  -0.00117   0.00000  -0.00375  -0.00389   1.88228
    A3        1.87938   0.00781   0.00000   0.04789   0.04793   1.92731
    A4        1.91364   0.00113   0.00000  -0.00536  -0.00555   1.90809
    A5        1.92354  -0.00163   0.00000  -0.00916  -0.00917   1.91436
    A6        1.96515  -0.00261   0.00000  -0.01142  -0.01162   1.95353
    A7        2.84348  -0.00987   0.00000  -0.03885  -0.03885   2.80463
    A8        2.31720   0.00003   0.00000   0.00011   0.00011   2.31732
    A9        2.35610   0.00008   0.00000   0.00032   0.00032   2.35642
   A10        2.37285   0.02052   0.00000   0.00000   0.00000   2.37285
   A11        1.98022  -0.00137   0.00000  -0.00938  -0.00966   1.97056
   A12        1.98271   0.00846   0.00000   0.05744   0.05749   2.04020
   A13        1.99112  -0.00278   0.00000  -0.01589  -0.01615   1.97497
   A14        1.77332  -0.00305   0.00000  -0.01244  -0.01256   1.76076
   A15        1.88957   0.00113   0.00000  -0.01020  -0.01051   1.87906
   A16        1.82832  -0.00255   0.00000  -0.01030  -0.01038   1.81795
   A17        1.81235  -0.00022   0.00000  -0.00020  -0.00021   1.81214
   A18        1.98544  -0.00047   0.00000  -0.00302  -0.00301   1.98243
   A19        1.86767   0.00118   0.00000   0.00709   0.00708   1.87475
   A20        1.94580   0.00017   0.00000  -0.00060  -0.00060   1.94520
   A21        1.92845   0.00027   0.00000   0.00203   0.00203   1.93048
   A22        1.92030  -0.00084   0.00000  -0.00461  -0.00460   1.91570
   A23        1.94596  -0.00000   0.00000  -0.00003  -0.00003   1.94593
   A24        1.88055  -0.00000   0.00000  -0.00001  -0.00001   1.88054
   A25        1.93311  -0.00000   0.00000  -0.00003  -0.00003   1.93308
   A26        1.93173   0.00000   0.00000   0.00002   0.00002   1.93176
   A27        1.82723  -0.00000   0.00000  -0.00000  -0.00000   1.82723
   A28        1.94617   0.00001   0.00000   0.00004   0.00004   1.94621
   A29        1.88532  -0.00000   0.00000  -0.00001  -0.00001   1.88531
   A30        1.89442  -0.00002   0.00000  -0.00011  -0.00011   1.89430
   A31        1.95715   0.00002   0.00000   0.00012   0.00012   1.95727
   A32        1.87632   0.00001   0.00000   0.00004   0.00004   1.87636
   A33        1.94135  -0.00001   0.00000  -0.00004  -0.00004   1.94131
   A34        1.90697   0.00000   0.00000   0.00000   0.00000   1.90697
   A35        2.53227   0.00005   0.00000   0.00021   0.00021   2.53248
   A36        1.81825  -0.00002   0.00000  -0.00018  -0.00018   1.81808
   A37        1.87906  -0.00000   0.00000   0.00006   0.00006   1.87912
   A38        2.09284   0.00002   0.00000   0.00015   0.00015   2.09299
   A39        1.80040  -0.00000   0.00000  -0.00011  -0.00011   1.80029
   A40        1.73310  -0.00001   0.00000  -0.00013  -0.00013   1.73297
   A41        2.08557   0.00000   0.00000   0.00007   0.00007   2.08564
   A42        2.29330  -0.00717   0.00000  -0.02820  -0.02820   2.26510
   A43        1.83467  -0.00059   0.00000  -0.00249  -0.00250   1.83217
   A44        1.90442  -0.00052   0.00000  -0.00246  -0.00246   1.90196
   A45        1.85062   0.00173   0.00000   0.01208   0.01208   1.86270
   A46        1.91620   0.00024   0.00000  -0.00227  -0.00229   1.91392
   A47        1.99552  -0.00029   0.00000  -0.00152  -0.00153   1.99399
   A48        1.95546  -0.00054   0.00000  -0.00286  -0.00287   1.95259
   A49        2.44669  -0.00008   0.00000  -0.00031  -0.00031   2.44639
   A50        1.83016  -0.00003   0.00000  -0.00024  -0.00024   1.82992
   A51        1.92532   0.00001   0.00000   0.00005   0.00005   1.92537
   A52        1.89529   0.00000   0.00000  -0.00001  -0.00001   1.89529
   A53        1.89948   0.00002   0.00000   0.00011   0.00011   1.89959
   A54        1.93645   0.00000   0.00000   0.00000   0.00000   1.93645
   A55        1.97197  -0.00000   0.00000   0.00006   0.00006   1.97203
   A56        2.03455   0.00000   0.00000   0.00002   0.00002   2.03457
   A57        2.01642   0.00001   0.00000   0.00007   0.00007   2.01649
   A58        1.93923   0.00000   0.00000   0.00001   0.00001   1.93924
   A59        2.03937   0.00003   0.00000   0.00018   0.00018   2.03955
   A60        1.98603   0.00003   0.00000   0.00020   0.00020   1.98623
   A61        1.92108  -0.00043   0.00000  -0.00262  -0.00262   1.91846
   A62        2.02348   0.00001   0.00000   0.00004   0.00004   2.02352
[...]
     49          1           0        3.834547    0.597752    3.865025
     50          8           0        0.974026   -1.522437    3.883729
     51          1           0        0.017406   -1.393478    4.015825
 ---------------------------------------------------------------------
 Rotational constants (GHZ):           0.0871937           0.0388041           0.0366530

 **********************************************************************

            Population analysis using the SCF Density.

 **********************************************************************

 Orbital symmetries:
       Occupied  (A) (A) (A) (A) (A) (A) (A) (A) (A) (A) (A) (A)
                 (A) (A) (A) (A) (A) (A) (A) (A) (A) (A) (A) (A)
                 (A) (A) (A) (A) (A) (A) (A) (A) (A) (A) (A) (A)
                 (A) (A) (A) (A) (A) (A) (A) (A) (A) (A) (A) (A)
                 (A) (A) (A) (A) (A) (A) (A) (A) (A) (A) (A) (A)
                 (A) (A) (A) (A) (A) (A) (A) (A) (A) (A) (A) (A)
                 (A) (A) (A) (A) (A) (A) (A) (A) (A) (A) (A) (A)
                 (A) (A) (A) (A) (A) (A) (A) (A) (A) (A) (A) (A)
                 (A) (A) (A) (A) (A) (A) (A) (A) (A) (A) (A) (A)
                 (A) (A) (A) (A) (A) (A) (A) (A) (A) (A) (A) (A)
                 (A) (A) (A) (A) (A) (A) (A) (A) (A) (A) (A) (A)
                 (A) (A) (A) (A) (A) (A) (A) (A) (A) (A) (A) (A)
                 (A) (A) (A) (A) (A) (A) (A) (A) (A) (A) (A) (A)
                 (A) (A) (A) (A) (A)
       Virtual   (A) (A) (A) (A) (A) (A) (A) (A) (A) (A) (A) (A)
                 (A) (A) (A) (A) (A) (A) (A) (A) (A) (A) (A) (A)
                 (A) (A) (A) (A) (A) (A) (A) (A) (A) (A) (A) (A)
                 (A) (A) (A) (A) (A) (A) (A) (A) (A) (A) (A) (A)
                 (A) (A) (A) (A) (A) (A) (A) (A) (A) (A) (A) (A)
                 (A) (A) (A) (A) (A) (A) (A) (A) (A) (A) (A) (A)
                 (A) (A) (A) (A) (A) (A) (A) (A) (A) (A) (A) (A)
                 (A) (A) (A) (A) (A) (A) (A) (A) (A) (A) (A) (A)
                 (A) (A) (A) (A) (A) (A) (A) (A) (A) (A) (A) (A)
                 (A) (A) (A) (A) (A) (A) (A) (A) (A) (A) (A) (A)
                 (A) (A) (A) (A) (A) (A) (A) (A) (A) (A) (A) (A)
                 (A) (A) (A) (A) (A) (A) (A) (A) (A) (A) (A) (A)
                 (A) (A) (A) (A) (A) (A) (A) (A) (A) (A) (A) (A)
                 (A) (A) (A) (A) (A) (A) (A) (A) (A) (A) (A) (A)
                 (A) (A) (A) (A) (A) (A) (A) (A) (A) (A) (A) (A)
                 (A) (A) (A) (A) (A) (A) (A) (A) (A) (A) (A) (A)
                 (A) (A) (A) (A) (A) (A) (A) (A) (A) (A) (A) (A)
                 (A) (A) (A) (A) (A) (A) (A) (A) (A) (A) (A) (A)
                 (A) (A) (A) (A) (A) (A) (A) (A) (A) (A) (A) (A)
                 (A) (A) (A) (A) (A) (A) (A) (A) (A) (A) (A) (A)
                 (A) (A) (A) (A) (A) (A) (A) (A) (A) (A) (A) (A)
                 (A) (A) (A) (A) (A) (A) (A) (A) (A) (A) (A) (A)
                 (A) (A) (A) (A) (A) (A) (A) (A) (A) (A) (A) (A)
                 (A) (A) (A) (A) (A) (A) (A) (A) (A) (A) (A) (A)
                 (A) (A) (A) (A) (A) (A) (A) (A) (A) (A) (A) (A)
                 (A) (A) (A) (A) (A) (A) (A) (A) (A) (A) (A) (A)
                 (A) (A) (A) (A) (A) (A) (A) (A) (A) (A) (A) (A)
                 (A) (A) (A) (A) (A) (A) (A) (A) (A) (A) (A) (A)
                 (A) (A) (A) (A) (A) (A) (A) (A) (A) (A) (A) (A)
                 (A) (A) (A) (A) (A) (A) (A) (A) (A) (A) (A) (A)
                 (A) (A) (A) (A) (A) (A) (A) (A) (A) (A) (A) (A)
                 (A) (A) (A) (A) (A) (A) (A) (A) (A) (A) (A) (A)
                 (A) (A) (A) (A) (A) (A) (A) (A) (A) (A) (A) (A)
                 (A) (A) (A) (A) (A) (A) (A) (A) (A) (A) (A) (A)
                 (A) (A) (A) (A) (A) (A) (A) (A) (A) (A) (A) (A)
                 (A) (A) (A) (A) (A) (A) (A) (A) (A) (A) (A) (A)
                 (A) (A) (A) (A) (A) (A) (A)
 The electronic state is 1-A.
 Alpha  occ. eigenvalues --  -66.22064 -66.21857 -66.21381 -66.20207 -19.17141
 Alpha  occ. eigenvalues --  -19.17046 -19.16393 -19.16362 -19.16158 -19.16015
 Alpha  occ. eigenvalues --  -19.15841 -19.15821 -19.15740 -19.15732 -19.15553
 Alpha  occ. eigenvalues --  -19.15257 -19.15188 -19.14694 -19.14588 -19.14321
 Alpha  occ. eigenvalues --  -19.14277 -19.14270 -19.14232 -19.14094 -19.13386
 Alpha  occ. eigenvalues --  -19.13202 -19.12573 -19.12127 -19.11633  -5.36089
 Alpha  occ. eigenvalues --   -5.36028  -5.35575  -5.34415  -3.72057  -3.72052
 Alpha  occ. eigenvalues --   -3.72029  -3.71998  -3.71987  -3.71919  -3.71637
 Alpha  occ. eigenvalues --   -3.71492  -3.71418  -3.70410  -3.70363  -3.70291
 Alpha  occ. eigenvalues --   -2.08262  -2.06933  -2.06806  -2.05081  -1.29318
 Alpha  occ. eigenvalues --   -1.28926  -1.28518  -1.27974  -1.27744  -1.27682
 Alpha  occ. eigenvalues --   -1.27174  -1.27142  -1.26738  -1.25725  -1.25472
 Alpha  occ. eigenvalues --   -1.25132  -1.05300  -1.04347  -1.03090  -1.01954
 Alpha  occ. eigenvalues --   -1.01444  -1.01185  -1.00988  -0.99765  -0.99491
 Alpha  occ. eigenvalues --   -0.98785  -0.98558  -0.98343  -0.97945  -0.97431
 Alpha  occ. eigenvalues --   -0.96685  -0.96347  -0.95475  -0.95049  -0.94961
 Alpha  occ. eigenvalues --   -0.93889  -0.93667  -0.92085  -0.91183  -0.89526
 Alpha  occ. eigenvalues --   -0.88439  -0.61678  -0.59606  -0.58816  -0.55901
 Alpha  occ. eigenvalues --   -0.54427  -0.53599  -0.52335  -0.52132  -0.51476
 Alpha  occ. eigenvalues --   -0.51368  -0.51049  -0.51026  -0.50802  -0.50194
 Alpha  occ. eigenvalues --   -0.50121  -0.49101  -0.48869  -0.47755  -0.46759
 Alpha  occ. eigenvalues --   -0.45617  -0.45544  -0.44781  -0.42791  -0.42063
 Alpha  occ. eigenvalues --   -0.41472  -0.41404  -0.40581  -0.40394  -0.40241
 Alpha  occ. eigenvalues --   -0.39692  -0.39556  -0.39203  -0.38957  -0.38427
 Alpha  occ. eigenvalues --   -0.37860  -0.37522  -0.37380  -0.37219  -0.36841
 Alpha  occ. eigenvalues --   -0.36691  -0.36126  -0.35968  -0.35762  -0.35620
 Alpha  occ. eigenvalues --   -0.35410  -0.35232  -0.35122  -0.34967  -0.34914
 Alpha  occ. eigenvalues --   -0.34654  -0.34289  -0.34249  -0.34117  -0.33980
 Alpha  occ. eigenvalues --   -0.33772  -0.33461  -0.33419  -0.33188  -0.33039
 Alpha  occ. eigenvalues --   -0.32859  -0.32575  -0.32521  -0.32232  -0.31974
 Alpha  occ. eigenvalues --   -0.31788  -0.31663  -0.31471  -0.31139  -0.30999
 Alpha  occ. eigenvalues --   -0.30803  -0.30757  -0.30193  -0.29522  -0.29136
 Alpha  occ. eigenvalues --   -0.28615
 Alpha virt. eigenvalues --   -0.05212  -0.04769  -0.04425  -0.03404  -0.02864
 Alpha virt. eigenvalues --   -0.02683  -0.01890  -0.01584  -0.01323  -0.01106
 Alpha virt. eigenvalues --   -0.00657  -0.00584  -0.00346   0.00041   0.00528
 Alpha virt. eigenvalues --    0.00674   0.00927   0.01398   0.01522   0.01816
 Alpha virt. eigenvalues --    0.02344   0.02487   0.02793   0.02969   0.03207
 Alpha virt. eigenvalues --    0.03798   0.04082   0.04211   0.05008   0.05431
 Alpha virt. eigenvalues --    0.05765   0.05839   0.06231   0.06582   0.07126
 Alpha virt. eigenvalues --    0.08122   0.08291   0.08682   0.09562   0.10259
 Alpha virt. eigenvalues --    0.10509   0.11188   0.11893   0.12469   0.12840
 Alpha virt. eigenvalues --    0.13449   0.13897   0.14588   0.15046   0.15259
 Alpha virt. eigenvalues --    0.15841   0.16267   0.16593   0.16725   0.16939
 Alpha virt. eigenvalues --    0.17563   0.18025   0.18153   0.18391   0.18729
 Alpha virt. eigenvalues --    0.19147   0.19437   0.19678   0.20275   0.20830
 Alpha virt. eigenvalues --    0.20968   0.21262   0.21517   0.22216   0.22283
 Alpha virt. eigenvalues --    0.22550   0.22748   0.22902   0.23342   0.24152
 Alpha virt. eigenvalues --    0.24238   0.24454   0.24775   0.25077   0.25663
 Alpha virt. eigenvalues --    0.25970   0.26673   0.26820   0.27462   0.27608
 Alpha virt. eigenvalues --    0.28290   0.28660   0.29375   0.30008   0.30111
 Alpha virt. eigenvalues --    0.30564   0.31138   0.31326   0.32030   0.32667
 Alpha virt. eigenvalues --    0.33331   0.33762   0.34116   0.34594   0.35183
 Alpha virt. eigenvalues --    0.36071   0.36668   0.36916   0.37585   0.37974
 Alpha virt. eigenvalues --    0.38436   0.39525   0.40892   0.41221   0.41797
 Alpha virt. eigenvalues --    0.42256   0.44560   0.45097   0.46541   0.46876
 Alpha virt. eigenvalues --    0.49276   0.49962   0.52073   0.55523   0.56399
 Alpha virt. eigenvalues --    0.58108   0.59571   0.60446   0.64606   0.66574
 Alpha virt. eigenvalues --    0.67413   0.76574   0.76817   0.78691   0.79658
 Alpha virt. eigenvalues --    0.80198   0.80994   0.81182   0.82044   0.83563
 Alpha virt. eigenvalues --    0.83705   0.84008   0.84826   0.85904   0.86736
 Alpha virt. eigenvalues --    0.86882   0.87889   0.88930   0.89612   0.90381
 Alpha virt. eigenvalues --    0.90718   0.91735   0.92154   0.92404   0.93202
 Alpha virt. eigenvalues --    0.93301   0.93937   0.94427   0.94912   0.95590
 Alpha virt. eigenvalues --    0.96298   0.96545   0.96761   0.97411   0.97526
 Alpha virt. eigenvalues --    0.97663   0.98171   0.98390   0.98628   0.99229
 Alpha virt. eigenvalues --    0.99381   1.00063   1.00636   1.00934   1.01238
 Alpha virt. eigenvalues --    1.02373   1.02920   1.03244   1.03392   1.03900
 Alpha virt. eigenvalues --    1.04702   1.05550   1.05871   1.06400   1.06487
 Alpha virt. eigenvalues --    1.07352   1.07537   1.08149   1.08728   1.08989
 Alpha virt. eigenvalues --    1.09434   1.09634   1.10382   1.10605   1.11038
 Alpha virt. eigenvalues --    1.11995   1.12709   1.13360   1.13837   1.14359
 Alpha virt. eigenvalues --    1.14786   1.15769   1.16243   1.16672   1.17198
 Alpha virt. eigenvalues --    1.17590   1.18173   1.18812   1.19081   1.19297
 Alpha virt. eigenvalues --    1.19612   1.20089   1.20847   1.21133   1.21714
 Alpha virt. eigenvalues --    1.21970   1.22626   1.23030   1.24062   1.24402
 Alpha virt. eigenvalues --    1.25671   1.26549   1.26869   1.27600   1.27890
 Alpha virt. eigenvalues --    1.29101   1.29627   1.30866   1.31299   1.32256
 Alpha virt. eigenvalues --    1.33764   1.34295   1.35328   1.36933   1.37876
 Alpha virt. eigenvalues --    1.42429   1.43379   1.44741   1.45463   1.47153
 Alpha virt. eigenvalues --    1.47832   1.49154   1.50290   1.50838   1.51068
 Alpha virt. eigenvalues --    1.51828   1.52378   1.53678   1.53999   1.54161
 Alpha virt. eigenvalues --    1.55170   1.55480   1.55937   1.56096   1.56624
 Alpha virt. eigenvalues --    1.56904   1.57491   1.57751   1.58297   1.58491
 Alpha virt. eigenvalues --    1.58669   1.58973   1.59373   1.60139   1.60357
 Alpha virt. eigenvalues --    1.61079   1.62154   1.62241   1.62477   1.62807
 Alpha virt. eigenvalues --    1.63258   1.63804   1.63936   1.64469   1.64687
 Alpha virt. eigenvalues --    1.65615   1.65784   1.66161   1.66799   1.66976
 Alpha virt. eigenvalues --    1.67530   1.68082   1.68741   1.70464   1.70791
 Alpha virt. eigenvalues --    1.71272   1.71686   1.71941   1.72543   1.72714
 Alpha virt. eigenvalues --    1.73388   1.73461   1.74145   1.74866   1.75319
 Alpha virt. eigenvalues --    1.75558   1.76397   1.76985   1.77523   1.77788
 Alpha virt. eigenvalues --    1.78196   1.78373   1.78617   1.78928   1.79367
 Alpha virt. eigenvalues --    1.79627   1.80508   1.80822   1.81165   1.81540
 Alpha virt. eigenvalues --    1.81588   1.82120   1.82319   1.82835   1.83064
 Alpha virt. eigenvalues --    1.83522   1.83766   1.84354   1.85235   1.85452
 Alpha virt. eigenvalues --    1.85730   1.86179   1.86384   1.86677   1.86927
 Alpha virt. eigenvalues --    1.87037   1.87524   1.87953   1.88591   1.89222
 Alpha virt. eigenvalues --    1.90141   1.90891   1.91007   1.91703   1.92688
 Alpha virt. eigenvalues --    1.92870   1.93254   1.94514   1.95160   1.97144
 Alpha virt. eigenvalues --    1.97548   1.98355   1.99461   2.01151   2.01572
 Alpha virt. eigenvalues --    2.04404   2.05504   2.08942   2.09261   2.11717
 Alpha virt. eigenvalues --    2.15015   2.19019   2.31885   2.33780   2.34009
 Alpha virt. eigenvalues --    2.34473   2.35025   2.35215   2.36291   2.36552
 Alpha virt. eigenvalues --    2.36994   2.37972   2.38037   2.39636   2.39722
 Alpha virt. eigenvalues --    2.39917   2.40673   2.41080   2.42448   2.44574
 Alpha virt. eigenvalues --    2.45122   2.46528   2.48002   2.49675   2.52275
 Alpha virt. eigenvalues --    2.55801   2.56293   2.58387   2.59130   2.59727
 Alpha virt. eigenvalues --    2.60129   2.60777   2.61221   2.61641   2.61978
 Alpha virt. eigenvalues --    2.62069   2.62320   2.62513   2.62783   2.63010
 Alpha virt. eigenvalues --    2.63056   2.63140   2.63533   2.63781   2.64164
 Alpha virt. eigenvalues --    2.64552   2.64653   2.65542   2.65615   2.65731
 Alpha virt. eigenvalues --    2.65962   2.66512   2.67531   2.68572   2.69277
 Alpha virt. eigenvalues --    2.69698   2.70608   2.70880   2.73066   2.74111
 Alpha virt. eigenvalues --    2.74552   2.74709   2.76630   2.76753   2.77491
 Alpha virt. eigenvalues --    2.77589   2.78083   2.81965   2.82702   2.84810
 Alpha virt. eigenvalues --    2.86758   2.93199   3.40455   3.40724   3.40923
 Alpha virt. eigenvalues --    3.41414   3.41970   3.43371   3.43879   3.45077
 Alpha virt. eigenvalues --    3.46067   3.46570   3.47214   3.47752   3.49106
 Alpha virt. eigenvalues --    3.49805   3.52145   3.54297   3.54969   3.55402
 Alpha virt. eigenvalues --    4.73102   6.24402   6.65515   7.77993
          Condensed to atoms (all electrons):
 Mulliken charges:
               1
     1  Si   1.296327
     2  O   -0.650692
     3  O   -0.649748
     4  O   -0.648901
     5  O   -0.754736
     6  Zr   1.610110
     7  Si   1.125121
     8  Si   1.163068
     9  Si   1.136048
    10  O   -0.820524
    11  Zr   1.494771
    12  O   -0.864195
    13  Zr   1.591472
    14  O   -0.827891
    15  Zr   1.550463
    16  O   -0.626918
    17  O   -0.573997
    18  O   -0.666810
    19  O   -0.626476
    20  O   -0.610525
    21  O   -0.644244
    22  O   -0.578256
    23  O   -0.652915
    24  O   -0.618574
    25  H    0.354977
    26  H    0.334280
    27  H    0.367360
    28  H    0.370550
    29  H    0.365620
    30  H    0.337889
    31  H    0.336723
    32  H    0.381395
    33  H    0.344258
    34  O   -0.695270
    35  H    0.332486
    36  O   -0.706856
    37  H    0.365754
    38  O   -0.749206
    39  H    0.331337
    40  O   -0.763522
    41  H    0.371801
    42  O   -0.694072
    43  H    0.334151
    44  O   -0.699135
    45  H    0.335372
    46  O   -0.762667
    47  H    0.380846
    48  O   -0.742499
    49  H    0.340351
    50  O   -0.691676
    51  H    0.367776
 Sum of Mulliken charges =  -0.00000
 Mulliken charges with hydrogens summed into heavy atoms:
               1
     1  Si   1.296327
     2  O   -0.650692
     3  O   -0.649748
     4  O   -0.648901
     5  O   -0.754736
     6  Zr   1.610110
     7  Si   1.125121
     8  Si   1.163068
     9  Si   1.136048
    10  O   -0.820524
    11  Zr   1.494771
    12  O   -0.864195
    13  Zr   1.591472
    14  O   -0.827891
    15  Zr   1.550463
    16  O   -0.289029
    17  O   -0.237274
    18  O   -0.301190
    19  O   -0.282218
    20  O   -0.239975
    21  O   -0.262849
    22  O   -0.243975
    23  O   -0.297939
    24  O   -0.251214
    34  O   -0.362784
    36  O   -0.341102
    38  O   -0.417869
    40  O   -0.391721
    42  O   -0.359921
    44  O   -0.363764
    46  O   -0.381821
    48  O   -0.402148
    50  O   -0.323900
 Electronic spatial extent (au):  <R**2>=          25005.0974
 Charge=             -0.0000 electrons
 Dipole moment (field-independent basis, Debye):
    X=              2.1304    Y=              4.4790    Z=              0.8690  Tot=              5.0354
 Quadrupole moment (field-independent basis, Debye-Ang):
   XX=           -294.4546   YY=           -258.2785   ZZ=           -261.3772
   XY=              3.4020   XZ=              7.4701   YZ=             -8.2550
 Traceless Quadrupole moment (field-independent basis, Debye-Ang):
   XX=            -23.0845   YY=             13.0916   ZZ=              9.9929
   XY=              3.4020   XZ=              7.4701   YZ=             -8.2550
 Octapole moment (field-independent basis, Debye-Ang**2):
  XXX=            324.1480  YYY=            102.1344  ZZZ=            -44.9931  XYY=            157.2737
  XXY=             65.3958  XXZ=            -28.3634  XZZ=            124.3058  YZZ=              9.8991
  YYZ=            -17.5253  XYZ=             59.0234
 Hexadecapole moment (field-independent basis, Debye-Ang**3):
 XXXX=         -22627.4908 YYYY=          -5678.7354 ZZZZ=          -4898.1604 XXXY=            141.5219
 XXXZ=              1.9522 YYYX=             36.3181 YYYZ=             22.4259 ZZZX=             49.2966
 ZZZY=            -71.4525 XXYY=          -4649.8651 XXZZ=          -3799.9241 YYZZ=          -1733.9613
 XXYZ=           -510.9754 YYXZ=           -166.6942 ZZXY=            181.0035
 N-N= 5.671136706291D+03 E-N=-1.894291374422D+04  KE= 3.091318958615D+03
 1\1\GINC-GRA702\FOpt\RB3LYP\Gen\H18O25Si4Zr4\SARASHS\24-Jun-2020\0\\#n
  B3LYP/GEN PSEUDO=READ Opt(modredundant)\\Title\\0,1\Si,-2.7623332279,
 0.5266779192,-0.7808480921\O,-2.64809437,-0.052950554,0.7490552382\O,-
 3.7220114726,1.8731236219,-0.7637077901\O,-3.4537023299,-0.6304968154,
 -1.7126663963\O,-1.2646906391,0.9112813251,-1.2736329016\Zr,0.60607558
 48,0.5777445076,-0.6117221909\Si,-2.9808044213,-0.3996748641,2.3054742
 83\Si,-5.3093586308,2.1145938716,-0.3864924597\Si,-4.6302142447,-1.781
 9850052,-1.4838768605\O,1.3896008084,-1.0392680249,-1.3167297527\Zr,3.
 032324162,-2.2412053808,-1.3027765109\O,0.7285985646,0.2515619847,1.38
 25072482\Zr,1.9634202751,-0.8570993062,2.4476157642\O,1.8513844547,2.0
 646880167,-0.9536678822\Zr,3.687733054,2.6606233244,-0.4856486233\O,-6
 .2976620279,1.7734361096,-1.6703884934\O,-5.4804654304,3.6763191618,0.
 0762373449\O,-5.7934024521,1.0723801582,0.8042862031\O,-3.5274889627,-
 1.974179126,2.2540555685\O,-4.0837970297,0.5940629909,2.9815038941\O,-
 1.5551992333,-0.3077071401,3.1345863807\O,-4.9269600223,-2.4980759272,
 -2.9279820821\O,-6.0317980168,-1.0194356206,-1.0055920721\O,-4.2054395
 865,-2.8764110313,-0.3602906669\H,-6.3753484589,-0.3636244246,-1.63465
 69163\H,-4.1562926036,-2.8355999822,-3.3971820607\H,-3.9266216884,-2.5
 958695324,0.5310112368\H,-4.8221111329,0.8312013587,2.3840412616\H,-6.
 0607406114,0.2065688189,0.4293902096\H,-6.2284772116,2.3565339417,-2.4
 34562194\H,-4.6690897466,4.121511049,0.3437451453\H,-0.8712306118,0.11
 14599096,2.5779782549\H,-4.0853189284,-2.2653029711,2.9839973619\O,3.3
 070369965,-2.7040359262,-3.195508934\H,3.9471257844,-2.4252276684,-3.8
 576023507\O,4.5736759814,-1.1289386619,-0.8907859684\H,4.7562128021,-0
 .3718249723,-0.2984638728\O,2.9117877503,-4.1122205436,-0.521252521\H,
 3.0096315447,-4.9232247423,-1.0320930462\O,4.4290081249,1.1967164654,0
 .6383476987\H,4.3064648587,0.9893108907,1.5887130001\O,4.778357608,2.8
 316966682,-2.0994506406\H,5.1745838463,3.4394151055,-2.7283130381\O,3.
 562244521,4.3202554975,0.5270561926\H,3.0804946706,5.0564662426,0.9087
 334551\O,2.635740067,-2.252992967,1.1819541539\H,2.6698529044,-3.22925
 80097,1.1287827388\O,3.4893480629,0.2781217332,3.0782906142\H,3.781872
 3305,0.5575960528,3.9526439981\O,0.9177693347,-1.5576525338,3.92490647
 64\H,-0.0399510004,-1.4280649938,4.0481105948\\Version=ES64L-G16RevB.0
 1\State=1-A\HF=-3237.5675335\RMSD=8.292e-09\RMSF=3.928e-05\Dipole=0.83
 75216,1.7579323,0.3645388\Quadrupole=-17.266525,9.8215601,7.4449649,2.
 595908,5.3082545,-6.1015843\PG=C01 [X(H18O25Si4Zr4)]\\@


 NO MATTER HOW THIN YOU SLICE IT, IT'S STILL BALONEY

                                   -- ALFRED E. SMITH
 Job cpu time:       0 days 17 hours 42 minutes 10.5 seconds.
 Elapsed time:       0 days  1 hours  6 minutes 43.0 seconds.
 File lengths (MBytes):  RWF=    218 Int=      0 D2E=      0 Chk=     28 Scr=      1
 Normal termination of Gaussian 16 at Wed Jun 24 15:17:08 2020.
