 Entering Gaussian System, Link 0=g16
 Initial command:
 /opt/software/gaussian/g16.b01/l1.exe "/localscratch/sarashs.33453290.0/Gau-2301.inp" -scrdir="/localscratch/sarashs.33453290.0/"
 Entering Link 1 = /opt/software/gaussian/g16.b01/l1.exe PID=      2303.
  
 Copyright (c) 1988-2017, Gaussian, Inc.  All Rights Reserved.
  
 This is part of the Gaussian(R) 16 program.  It is based on
 the Gaussian(R) 09 system (copyright 2009, Gaussian, Inc.),
 the Gaussian(R) 03 system (copyright 2003, Gaussian, Inc.),
 the Gaussian(R) 98 system (copyright 1998, Gaussian, Inc.),
 the Gaussian(R) 94 system (copyright 1995, Gaussian, Inc.),
 the Gaussian 92(TM) system (copyright 1992, Gaussian, Inc.),
 the Gaussian 90(TM) system (copyright 1990, Gaussian, Inc.),
 the Gaussian 88(TM) system (copyright 1988, Gaussian, Inc.),
 the Gaussian 86(TM) system (copyright 1986, Carnegie Mellon
 University), and the Gaussian 82(TM) system (copyright 1983,
 Carnegie Mellon University). Gaussian is a federally registered
 trademark of Gaussian, Inc.
  
 This software contains proprietary and confidential information,
 including trade secrets, belonging to Gaussian, Inc.
  
 This software is provided under written license and may be
 used, copied, transmitted, or stored only in accord with that
 written license.
  
 The following legend is applicable only to US Government
 contracts under FAR:
  
                    RESTRICTED RIGHTS LEGEND
  
 Use, reproduction and disclosure by the US Government is
 subject to restrictions as set forth in subparagraphs (a)
 and (c) of the Commercial Computer Software - Restricted
 Rights clause in FAR 52.227-19.
  
 Gaussian, Inc.
 340 Quinnipiac St., Bldg. 40, Wallingford CT 06492
  
  
 ---------------------------------------------------------------
 Warning -- This program may not be used in any manner that
 competes with the business of Gaussian, Inc. or will provide
 assistance to any competitor of Gaussian, Inc.  The licensee
 of this program is prohibited from giving any competitor of
 Gaussian, Inc. access to this program.  By using this program,
 the user acknowledges that Gaussian, Inc. is engaged in the
 business of creating and licensing software in the field of
 computational chemistry and represents and warrants to the
 licensee that it is not a competitor of Gaussian, Inc. and that
 it will not use this program in any manner prohibited above.
 ---------------------------------------------------------------
  

 Cite this work as:
 Gaussian 16, Revision B.01,
 M. J. Frisch, G. W. Trucks, H. B. Schlegel, G. E. Scuseria, 
 M. A. Robb, J. R. Cheeseman, G. Scalmani, V. Barone, 
 G. A. Petersson, H. Nakatsuji, X. Li, M. Caricato, A. V. Marenich, 
 J. Bloino, B. G. Janesko, R. Gomperts, B. Mennucci, H. P. Hratchian, 
 J. V. Ortiz, A. F. Izmaylov, J. L. Sonnenberg, D. Williams-Young, 
 F. Ding, F. Lipparini, F. Egidi, J. Goings, B. Peng, A. Petrone, 
 T. Henderson, D. Ranasinghe, V. G. Zakrzewski, J. Gao, N. Rega, 
 G. Zheng, W. Liang, M. Hada, M. Ehara, K. Toyota, R. Fukuda, 
 J. Hasegawa, M. Ishida, T. Nakajima, Y. Honda, O. Kitao, H. Nakai, 
 T. Vreven, K. Throssell, J. A. Montgomery, Jr., J. E. Peralta, 
 F. Ogliaro, M. J. Bearpark, J. J. Heyd, E. N. Brothers, K. N. Kudin, 
 V. N. Staroverov, T. A. Keith, R. Kobayashi, J. Normand, 
 K. Raghavachari, A. P. Rendell, J. C. Burant, S. S. Iyengar, 
 J. Tomasi, M. Cossi, J. M. Millam, M. Klene, C. Adamo, R. Cammi, 
 J. W. Ochterski, R. L. Martin, K. Morokuma, O. Farkas, 
 J. B. Foresman, and D. J. Fox, Gaussian, Inc., Wallingford CT, 2016.
 
 ******************************************
 Gaussian 16:  ES64L-G16RevB.01 20-Dec-2017
                24-Jun-2020 
 ******************************************
 %NProcShared=16
 Will use up to   16 processors via shared memory.
 ------------------------------------------
 #n B3LYP/GEN PSEUDO=READ Opt(modredundant)
 ------------------------------------------
 1/18=120,19=15,26=3,38=1/1,3;
 2/9=110,12=2,17=6,18=5,40=1/2;
 3/5=7,11=2,16=1,17=8,25=1,30=1,71=1,74=-5/1,2,3;
 4//1;
 5/5=2,38=5/2;
 6/7=2,8=2,9=2,10=2,28=1/1;
 7//1,2,3,16;
 1/18=20,19=15,26=3/3(2);
 2/9=110/2;
 99//99;
 2/9=110/2;
 3/5=7,6=1,11=2,16=1,17=8,25=1,30=1,71=1,74=-5,82=7/1,2,3;
 4/5=5,16=3,69=1/1;
 5/5=2,38=5/2;
 7//1,2,3,16;
 1/18=20,19=15,26=3/3(-5);
 2/9=110/2;
 6/7=2,8=2,9=2,10=2,19=2,28=1/1;
 99/9=1/99;
 -----
 Title
 -----
 Symbolic Z-matrix:
 Charge =  0 Multiplicity = 1
 Si                   -2.76356   0.50373  -0.80236 
 O                    -2.64408  -0.06281   0.73154 
 O                    -3.71347   1.8573   -0.78988 
 O                    -3.46982  -0.65647  -1.71915 
 O                    -1.26704   0.87374  -1.30905 
 Zr                    0.61539   0.56601  -0.67154 
 Si                   -2.95182  -0.40071   2.29443 
 Si                   -5.29329   2.11319  -0.39088 
 Si                   -4.65193  -1.79724  -1.46558 
 O                     1.41394  -1.0417   -1.38137 
 Zr                    3.06809  -2.22774  -1.37329 
 O                     0.75329   0.24323   1.32177 
 Zr                    2.00282  -0.85379   2.38166 
 O                     1.83862   2.06957  -1.02209 
 Zr                    3.67076   2.68494  -0.56316 
 O                    -6.30259   1.76732  -1.65717 
 O                    -5.44687   3.68028   0.05984 
 O                    -5.76721   1.08545   0.81639 
 O                    -3.50601  -1.97299   2.26095 
 O                    -4.03994   0.60192   2.98173 
 O                    -1.51274  -0.31185   3.10045 
 O                    -4.9739   -2.52135  -2.90029 
 O                    -6.04082  -1.02047  -0.97357 
 O                    -4.21989  -2.88703  -0.34024 
 H                    -6.38886  -0.36717  -1.60281 
 H                    -4.21233  -2.86813  -3.37752 
 H                    -3.92943  -2.60256   0.54609 
 H                    -4.78107   0.84544   2.39047 
 H                    -6.04405   0.21773   0.45311 
 H                    -6.24075   2.34318  -2.42744 
 H                    -4.62851   4.12226   0.31086 
 H                    -0.83615   0.10482   2.53314 
 H                    -4.05643  -2.25627   2.99954 
 O                     3.34063  -2.68771  -3.26702 
 H                     3.97636  -2.40286  -3.93075 
 O                     4.60024  -1.10084  -0.96656 
 H                     4.7757   -0.33846  -0.37885 
 O                     2.96821  -4.10004  -0.59183 
 H                     3.07241  -4.90991  -1.1032 
 O                     4.4326    1.22831   0.55644 
 H                     4.31864   1.01892   1.50747 
 O                     4.7512    2.86704  -2.18264 
 H                     5.13921   3.47878  -2.81273 
 O                     3.53343   4.34326   0.45028 
 H                     3.04537   5.07362   0.83517 
 O                     2.6806   -2.24471   1.11366 
 H                     2.72389  -3.22053   1.05936 
 O                     3.52171   0.29637   3.0022 
 H                     3.8155    0.58049   3.87464 
 O                     0.97026  -1.5596    3.86565 
 H                     0.01348  -1.43173   3.99773 
 
 The following ModRedundant input section has been read:
 A       1       5       6 F                                                   
 

 GradGradGradGradGradGradGradGradGradGradGradGradGradGradGradGradGradGrad
 Berny optimization.
 Initialization pass.
                           ----------------------------
                           !    Initial Parameters    !
                           ! (Angstroms and Degrees)  !
 --------------------------                            --------------------------
 ! Name  Definition              Value          Derivative Info.                !
 --------------------------------------------------------------------------------
 ! R1    R(1,2)                  1.6395         estimate D2E/DX2                !
 ! R2    R(1,3)                  1.6537         estimate D2E/DX2                !
 ! R3    R(1,4)                  1.6387         estimate D2E/DX2                !
 ! R4    R(1,5)                  1.6227         estimate D2E/DX2                !
 ! R5    R(2,7)                  1.6283         estimate D2E/DX2                !
 ! R6    R(3,8)                  1.6494         estimate D2E/DX2                !
 ! R7    R(4,9)                  1.6622         estimate D2E/DX2                !
 ! R8    R(5,6)                  2.0111         estimate D2E/DX2                !
 ! R9    R(6,10)                 1.9304         estimate D2E/DX2                !
 ! R10   R(6,12)                 2.024          estimate D2E/DX2                !
 ! R11   R(6,14)                 1.9697         estimate D2E/DX2                !
 ! R12   R(7,19)                 1.6674         estimate D2E/DX2                !
 ! R13   R(7,20)                 1.6315         estimate D2E/DX2                !
 ! R14   R(7,21)                 1.6518         estimate D2E/DX2                !
 ! R15   R(8,16)                 1.6558         estimate D2E/DX2                !
 ! R16   R(8,17)                 1.6378         estimate D2E/DX2                !
 ! R17   R(8,18)                 1.6548         estimate D2E/DX2                !
 ! R18   R(9,22)                 1.639          estimate D2E/DX2                !
 ! R19   R(9,23)                 1.6657         estimate D2E/DX2                !
 ! R20   R(9,24)                 1.625          estimate D2E/DX2                !
 ! R21   R(10,11)                2.0354         estimate D2E/DX2                !
 ! R22   R(11,34)                1.9678         estimate D2E/DX2                !
 ! R23   R(11,36)                1.9449         estimate D2E/DX2                !
 ! R24   R(11,38)                2.0313         estimate D2E/DX2                !
 ! R25   R(12,13)                1.9718         estimate D2E/DX2                !
 ! R26   R(13,46)                2.0005         estimate D2E/DX2                !
 ! R27   R(13,48)                2.0037         estimate D2E/DX2                !
 ! R28   R(13,50)                1.9408         estimate D2E/DX2                !
 ! R29   R(14,15)                1.9865         estimate D2E/DX2                !
 ! R30   R(15,40)                1.9889         estimate D2E/DX2                !
 ! R31   R(15,42)                1.9553         estimate D2E/DX2                !
 ! R32   R(15,44)                1.9483         estimate D2E/DX2                !
 ! R33   R(16,30)                0.9637         estimate D2E/DX2                !
 ! R34   R(17,31)                0.9634         estimate D2E/DX2                !
 ! R35   R(18,29)                0.9806         estimate D2E/DX2                !
 ! R36   R(19,33)                0.9637         estimate D2E/DX2                !
 ! R37   R(20,28)                0.9789         estimate D2E/DX2                !
 ! R38   R(21,32)                0.9763         estimate D2E/DX2                !
 ! R39   R(22,26)                0.9633         estimate D2E/DX2                !
 ! R40   R(23,25)                0.9715         estimate D2E/DX2                !
 ! R41   R(24,27)                0.9751         estimate D2E/DX2                !
 ! R42   R(34,35)                0.9622         estimate D2E/DX2                !
 ! R43   R(36,37)                0.9785         estimate D2E/DX2                !
 ! R44   R(38,39)                0.9635         estimate D2E/DX2                !
 ! R45   R(40,41)                0.9805         estimate D2E/DX2                !
 ! R46   R(42,43)                0.9601         estimate D2E/DX2                !
 ! R47   R(44,45)                0.959          estimate D2E/DX2                !
 ! R48   R(46,47)                0.9783         estimate D2E/DX2                !
 ! R49   R(48,49)                0.9634         estimate D2E/DX2                !
 ! R50   R(50,51)                0.9743         estimate D2E/DX2                !
 ! A1    A(2,1,3)              108.5202         estimate D2E/DX2                !
 ! A2    A(2,1,4)              108.0696         estimate D2E/DX2                !
 ! A3    A(2,1,5)              107.6808         estimate D2E/DX2                !
 ! A4    A(3,1,4)              109.6434         estimate D2E/DX2                !
 ! A5    A(3,1,5)              110.2104         estimate D2E/DX2                !
 ! A6    A(4,1,5)              112.595          estimate D2E/DX2                !
 ! A7    A(1,2,7)              162.9195         estimate D2E/DX2                !
 ! A8    A(1,3,8)              132.766          estimate D2E/DX2                !
 ! A9    A(1,4,9)              134.9946         estimate D2E/DX2                !
 ! A10   A(1,5,6)              136.8313         Frozen                          !
 ! A11   A(5,6,10)             113.4583         estimate D2E/DX2                !
 ! A12   A(5,6,12)             113.6008         estimate D2E/DX2                !
 ! A13   A(5,6,14)             114.0828         estimate D2E/DX2                !
 ! A14   A(10,6,12)            101.6036         estimate D2E/DX2                !
 ! A15   A(10,6,14)            108.2644         estimate D2E/DX2                !
 ! A16   A(12,6,14)            104.7555         estimate D2E/DX2                !
 ! A17   A(2,7,19)             103.84           estimate D2E/DX2                !
 ! A18   A(2,7,20)             113.7575         estimate D2E/DX2                !
 ! A19   A(2,7,21)             107.0096         estimate D2E/DX2                !
 ! A20   A(19,7,20)            111.4863         estimate D2E/DX2                !
 ! A21   A(19,7,21)            110.4922         estimate D2E/DX2                !
 ! A22   A(20,7,21)            110.0253         estimate D2E/DX2                !
 ! A23   A(3,8,16)             111.4953         estimate D2E/DX2                !
 ! A24   A(3,8,17)             107.7477         estimate D2E/DX2                !
 ! A25   A(3,8,18)             110.7593         estimate D2E/DX2                !
 ! A26   A(16,8,17)            110.6802         estimate D2E/DX2                !
 ! A27   A(16,8,18)            104.6923         estimate D2E/DX2                !
 ! A28   A(17,8,18)            111.5071         estimate D2E/DX2                !
 ! A29   A(4,9,22)             108.021          estimate D2E/DX2                !
 ! A30   A(4,9,23)             108.5421         estimate D2E/DX2                !
 ! A31   A(4,9,24)             112.1363         estimate D2E/DX2                !
 ! A32   A(22,9,23)            107.505          estimate D2E/DX2                !
 ! A33   A(22,9,24)            111.2311         estimate D2E/DX2                !
 ! A34   A(23,9,24)            109.2613         estimate D2E/DX2                !
 ! A35   A(6,10,11)            145.0882         estimate D2E/DX2                !
 ! A36   A(10,11,34)           104.1786         estimate D2E/DX2                !
 ! A37   A(10,11,36)           107.6626         estimate D2E/DX2                !
 ! A38   A(10,11,38)           119.9111         estimate D2E/DX2                !
 ! A39   A(34,11,36)           103.1549         estimate D2E/DX2                !
 ! A40   A(34,11,38)            99.2992         estimate D2E/DX2                !
 ! A41   A(36,11,38)           119.4939         estimate D2E/DX2                !
 ! A42   A(6,12,13)            131.3967         estimate D2E/DX2                !
 ! A43   A(12,13,46)           105.1188         estimate D2E/DX2                !
 ! A44   A(12,13,48)           109.1154         estimate D2E/DX2                !
 ! A45   A(12,13,50)           106.0328         estimate D2E/DX2                !
 ! A46   A(46,13,48)           109.7901         estimate D2E/DX2                !
 ! A47   A(46,13,50)           114.3347         estimate D2E/DX2                !
 ! A48   A(48,13,50)           112.0397         estimate D2E/DX2                !
 ! A49   A(6,14,15)            140.1851         estimate D2E/DX2                !
 ! A50   A(14,15,40)           104.8603         estimate D2E/DX2                !
 ! A51   A(14,15,42)           110.3126         estimate D2E/DX2                !
 ! A52   A(14,15,44)           108.5924         estimate D2E/DX2                !
 ! A53   A(40,15,42)           108.8318         estimate D2E/DX2                !
 ! A54   A(40,15,44)           110.9503         estimate D2E/DX2                !
 ! A55   A(42,15,44)           112.9858         estimate D2E/DX2                !
 ! A56   A(8,16,30)            116.5711         estimate D2E/DX2                !
 ! A57   A(8,17,31)            115.5324         estimate D2E/DX2                !
 ! A58   A(8,18,29)            111.1097         estimate D2E/DX2                !
 ! A59   A(7,19,33)            116.8474         estimate D2E/DX2                !
 ! A60   A(7,20,28)            113.7913         estimate D2E/DX2                !
 ! A61   A(7,21,32)            110.0697         estimate D2E/DX2                !
 ! A62   A(9,22,26)            115.9371         estimate D2E/DX2                !
 ! A63   A(9,23,25)            114.8968         estimate D2E/DX2                !
 ! A64   A(9,24,27)            120.8639         estimate D2E/DX2                !
 ! A65   A(11,34,35)           133.3272         estimate D2E/DX2                !
 ! A66   A(11,36,37)           135.9149         estimate D2E/DX2                !
 ! A67   A(11,38,39)           124.422          estimate D2E/DX2                !
 ! A68   A(15,40,41)           131.1417         estimate D2E/DX2                !
 ! A69   A(15,42,43)           145.7115         estimate D2E/DX2                !
 ! A70   A(15,44,45)           153.2298         estimate D2E/DX2                !
 ! A71   A(13,46,47)           138.0491         estimate D2E/DX2                !
 ! A72   A(13,48,49)           132.9123         estimate D2E/DX2                !
 ! A73   A(13,50,51)           125.3387         estimate D2E/DX2                !
 ! D1    D(3,1,2,7)             26.3443         estimate D2E/DX2                !
 ! D2    D(4,1,2,7)            -92.4856         estimate D2E/DX2                !
 ! D3    D(5,1,2,7)            145.6313         estimate D2E/DX2                !
 ! D4    D(2,1,3,8)            -62.7632         estimate D2E/DX2                !
 ! D5    D(4,1,3,8)             55.0697         estimate D2E/DX2                !
 ! D6    D(5,1,3,8)            179.5501         estimate D2E/DX2                !
 ! D7    D(2,1,4,9)             35.4977         estimate D2E/DX2                !
 ! D8    D(3,1,4,9)            -82.6158         estimate D2E/DX2                !
 ! D9    D(5,1,4,9)            154.3011         estimate D2E/DX2                !
 ! D10   D(2,1,5,6)             11.3159         estimate D2E/DX2                !
 ! D11   D(3,1,5,6)            129.5199         estimate D2E/DX2                !
 ! D12   D(4,1,5,6)           -107.7145         estimate D2E/DX2                !
 ! D13   D(1,2,7,19)           100.9483         estimate D2E/DX2                !
 ! D14   D(1,2,7,20)           -20.4241         estimate D2E/DX2                !
 ! D15   D(1,2,7,21)          -142.1534         estimate D2E/DX2                !
 ! D16   D(1,3,8,16)           -83.6614         estimate D2E/DX2                !
 ! D17   D(1,3,8,17)           154.7            estimate D2E/DX2                !
 ! D18   D(1,3,8,18)            32.4929         estimate D2E/DX2                !
 ! D19   D(1,4,9,22)           173.7129         estimate D2E/DX2                !
 ! D20   D(1,4,9,23)            57.4339         estimate D2E/DX2                !
 ! D21   D(1,4,9,24)           -63.3679         estimate D2E/DX2                !
 ! D22   D(1,5,6,10)            91.4685         estimate D2E/DX2                !
 ! D23   D(1,5,6,12)           -23.9274         estimate D2E/DX2                !
 ! D24   D(1,5,6,14)          -143.9089         estimate D2E/DX2                !
 ! D25   D(5,6,10,11)         -177.868          estimate D2E/DX2                !
 ! D26   D(12,6,10,11)         -55.5482         estimate D2E/DX2                !
 ! D27   D(14,6,10,11)          54.4243         estimate D2E/DX2                !
 ! D28   D(5,6,12,13)          148.1498         estimate D2E/DX2                !
 ! D29   D(10,6,12,13)          25.9283         estimate D2E/DX2                !
 ! D30   D(14,6,12,13)         -86.7113         estimate D2E/DX2                !
 ! D31   D(5,6,14,15)          169.9962         estimate D2E/DX2                !
 ! D32   D(10,6,14,15)         -62.6542         estimate D2E/DX2                !
 ! D33   D(12,6,14,15)          45.1616         estimate D2E/DX2                !
 ! D34   D(2,7,19,33)         -156.8425         estimate D2E/DX2                !
 ! D35   D(20,7,19,33)         -33.9627         estimate D2E/DX2                !
 ! D36   D(21,7,19,33)          88.7198         estimate D2E/DX2                !
 ! D37   D(2,7,20,28)           39.0047         estimate D2E/DX2                !
 ! D38   D(19,7,20,28)         -78.0052         estimate D2E/DX2                !
 ! D39   D(21,7,20,28)         159.0451         estimate D2E/DX2                !
 ! D40   D(2,7,21,32)           12.2859         estimate D2E/DX2                !
 ! D41   D(19,7,21,32)         124.7052         estimate D2E/DX2                !
 ! D42   D(20,7,21,32)        -111.7631         estimate D2E/DX2                !
 ! D43   D(3,8,16,30)          -66.936          estimate D2E/DX2                !
 ! D44   D(17,8,16,30)          52.9866         estimate D2E/DX2                !
 ! D45   D(18,8,16,30)         173.2574         estimate D2E/DX2                !
 ! D46   D(3,8,17,31)          -19.3558         estimate D2E/DX2                !
 ! D47   D(16,8,17,31)        -141.4996         estimate D2E/DX2                !
 ! D48   D(18,8,17,31)         102.3883         estimate D2E/DX2                !
 ! D49   D(3,8,18,29)          -84.4645         estimate D2E/DX2                !
 ! D50   D(16,8,18,29)          35.8337         estimate D2E/DX2                !
 ! D51   D(17,8,18,29)         155.5519         estimate D2E/DX2                !
 ! D52   D(4,9,22,26)           52.0376         estimate D2E/DX2                !
 ! D53   D(23,9,22,26)         168.99           estimate D2E/DX2                !
 ! D54   D(24,9,22,26)         -71.4318         estimate D2E/DX2                !
 ! D55   D(4,9,23,25)           59.2735         estimate D2E/DX2                !
 ! D56   D(22,9,23,25)         -57.3378         estimate D2E/DX2                !
 ! D57   D(24,9,23,25)        -178.1643         estimate D2E/DX2                !
 ! D58   D(4,9,24,27)           54.0597         estimate D2E/DX2                !
 ! D59   D(22,9,24,27)         175.1468         estimate D2E/DX2                !
 ! D60   D(23,9,24,27)         -66.3256         estimate D2E/DX2                !
 ! D61   D(6,10,11,34)        -136.8772         estimate D2E/DX2                !
 ! D62   D(6,10,11,36)         -27.8028         estimate D2E/DX2                !
 ! D63   D(6,10,11,38)         113.3909         estimate D2E/DX2                !
 ! D64   D(10,11,34,35)        105.9344         estimate D2E/DX2                !
 ! D65   D(36,11,34,35)         -6.4256         estimate D2E/DX2                !
 ! D66   D(38,11,34,35)       -129.8338         estimate D2E/DX2                !
 ! D67   D(10,11,36,37)         37.797          estimate D2E/DX2                !
 ! D68   D(34,11,36,37)        147.5771         estimate D2E/DX2                !
 ! D69   D(38,11,36,37)       -103.5875         estimate D2E/DX2                !
 ! D70   D(10,11,38,39)        114.2536         estimate D2E/DX2                !
 ! D71   D(34,11,38,39)          1.886          estimate D2E/DX2                !
 ! D72   D(36,11,38,39)       -109.0649         estimate D2E/DX2                !
 ! D73   D(6,12,13,46)         -23.7702         estimate D2E/DX2                !
 ! D74   D(6,12,13,48)          93.9283         estimate D2E/DX2                !
 ! D75   D(6,12,13,50)        -145.2201         estimate D2E/DX2                !
 ! D76   D(12,13,46,47)       -123.8173         estimate D2E/DX2                !
 ! D77   D(48,13,46,47)        118.9427         estimate D2E/DX2                !
 ! D78   D(50,13,46,47)         -7.9574         estimate D2E/DX2                !
 ! D79   D(12,13,48,49)        115.0453         estimate D2E/DX2                !
 ! D80   D(46,13,48,49)       -130.2414         estimate D2E/DX2                !
 ! D81   D(50,13,48,49)         -2.062          estimate D2E/DX2                !
 ! D82   D(12,13,50,51)          3.8978         estimate D2E/DX2                !
 ! D83   D(46,13,50,51)       -111.4301         estimate D2E/DX2                !
 ! D84   D(48,13,50,51)        122.8397         estimate D2E/DX2                !
 ! D85   D(6,14,15,40)           2.402          estimate D2E/DX2                !
 ! D86   D(6,14,15,42)         119.4234         estimate D2E/DX2                !
 ! D87   D(6,14,15,44)        -116.2546         estimate D2E/DX2                !
 ! D88   D(14,15,40,41)        -80.6707         estimate D2E/DX2                !
 ! D89   D(42,15,40,41)        161.2976         estimate D2E/DX2                !
 ! D90   D(44,15,40,41)         36.3818         estimate D2E/DX2                !
 ! D91   D(14,15,42,43)        104.4336         estimate D2E/DX2                !
 ! D92   D(40,15,42,43)       -141.0358         estimate D2E/DX2                !
 ! D93   D(44,15,42,43)        -17.323          estimate D2E/DX2                !
 ! D94   D(14,15,44,45)         -4.82           estimate D2E/DX2                !
 ! D95   D(40,15,44,45)       -119.562          estimate D2E/DX2                !
 ! D96   D(42,15,44,45)        117.9001         estimate D2E/DX2                !
 --------------------------------------------------------------------------------
 Trust Radius=3.00D-01 FncErr=1.00D-07 GrdErr=1.00D-06 EigMax=2.50D+02 EigMin=1.00D-04
 Number of steps in this run=    229 maximum allowed number of steps=    306.
 GradGradGradGradGradGradGradGradGradGradGradGradGradGradGradGradGradGrad

 Stoichiometry    H18O25Si4Zr4
 Framework group  C1[X(H18O25Si4Zr4)]
 Deg. of freedom   147
 Full point group                 C1      NOp   1
 Largest Abelian subgroup         C1      NOp   1
 Largest concise Abelian subgroup C1      NOp   1
                         Standard orientation:                         
 ---------------------------------------------------------------------
 Center     Atomic      Atomic             Coordinates (Angstroms)
 Number     Number       Type             X           Y           Z
 ---------------------------------------------------------------------
      1         14           0       -2.763559    0.503732   -0.802360
      2          8           0       -2.644080   -0.062808    0.731540
      3          8           0       -3.713468    1.857303   -0.789880
      4          8           0       -3.469820   -0.656468   -1.719150
      5          8           0       -1.267039    0.873741   -1.309050
      6         40           0        0.615391    0.566010   -0.671540
      7         14           0       -2.951820   -0.400708    2.294430
      8         14           0       -5.293288    2.113193   -0.390880
      9         14           0       -4.651930   -1.797237   -1.465580
     10          8           0        1.413940   -1.041700   -1.381370
     11         40           0        3.068089   -2.227741   -1.373290
     12          8           0        0.753291    0.243230    1.321770
     13         40           0        2.002820   -0.853791    2.381660
     14          8           0        1.838622    2.069570   -1.022090
     15         40           0        3.670762    2.684939   -0.563160
     16          8           0       -6.302589    1.767324   -1.657170
     17          8           0       -5.446867    3.680284    0.059840
     18          8           0       -5.767209    1.085454    0.816390
     19          8           0       -3.506011   -1.972988    2.260950
     20          8           0       -4.039939    0.601923    2.981730
     21          8           0       -1.512740   -0.311849    3.100450
     22          8           0       -4.973901   -2.521347   -2.900290
     23          8           0       -6.040820   -1.020466   -0.973570
     24          8           0       -4.219891   -2.887027   -0.340240
     25          1           0       -6.388860   -0.367166   -1.602810
     26          1           0       -4.212331   -2.868127   -3.377520
     27          1           0       -3.929431   -2.602557    0.546090
     28          1           0       -4.781069    0.845443    2.390470
     29          1           0       -6.044049    0.217734    0.453110
     30          1           0       -6.240748    2.343184   -2.427440
     31          1           0       -4.628507    4.122263    0.310860
     32          1           0       -0.836149    0.104821    2.533140
     33          1           0       -4.056431   -2.256267    2.999540
     34          8           0        3.340629   -2.687711   -3.267020
     35          1           0        3.976359   -2.402862   -3.930750
     36          8           0        4.600240   -1.100842   -0.966560
     37          1           0        4.775700   -0.338462   -0.378850
     38          8           0        2.968208   -4.100041   -0.591830
     39          1           0        3.072408   -4.909911   -1.103200
     40          8           0        4.432601    1.228308    0.556440
     41          1           0        4.318641    1.018918    1.507470
     42          8           0        4.751202    2.867038   -2.182640
     43          1           0        5.139212    3.478778   -2.812730
     44          8           0        3.533433    4.343259    0.450280
     45          1           0        3.045373    5.073619    0.835170
     46          8           0        2.680599   -2.244711    1.113660
     47          1           0        2.723889   -3.220531    1.059360
     48          8           0        3.521711    0.296369    3.002200
     49          1           0        3.815501    0.580488    3.874640
     50          8           0        0.970260   -1.559600    3.865650
     51          1           0        0.013480   -1.431729    3.997730
 ---------------------------------------------------------------------
 Rotational constants (GHZ):           0.0870920           0.0387450           0.0365574
 General basis read from cards:  (5D, 7F)
 ======================================================================================================
                                       Pseudopotential Parameters
 ======================================================================================================
  Center     Atomic      Valence      Angular      Power
  Number     Number     Electrons     Momentum     of R      Exponent        Coefficient   SO-Coeffient
 ======================================================================================================
    1         14
                                   No pseudopotential on this center.
    2          8
                                   No pseudopotential on this center.
    3          8
                                   No pseudopotential on this center.
    4          8
                                   No pseudopotential on this center.
    5          8
                                   No pseudopotential on this center.
    6         40           12
                                      F and up 
                                                     0      645.9321873       -0.04258430    0.00000000
                                                     1      134.7547401      -20.22224090    0.00000000
                                                     2       42.3074619     -101.86951720    0.00000000
                                                     2       12.0003227      -41.61957840    0.00000000
                                                     2        4.1260454       -4.69861600    0.00000000
                                      S - F
                                                     0      117.6251862        2.79105590    0.00000000
                                                     1       22.9646089       41.94894590    0.00000000
                                                     2        4.5225298       67.72718660    0.00000000
                                      P - F
                                                     0       47.1953145        4.99111440    0.00000000
                                                     1       48.0356033       20.71931720    0.00000000
                                                     2       19.4541456      195.58677580    0.00000000
                                                     2        4.0512875       48.28771760    0.00000000
                                      D - F
                                                     0       79.9073983        3.00492260    0.00000000
                                                     1       45.8263798       25.93779890    0.00000000
                                                     2       26.9903522      125.12449340    0.00000000
                                                     2        9.6835718       70.76340220    0.00000000
                                                     2        2.7995666       15.04928220    0.00000000
    7         14
                                   No pseudopotential on this center.
    8         14
                                   No pseudopotential on this center.
    9         14
                                   No pseudopotential on this center.
   10          8
                                   No pseudopotential on this center.
   11         40           12
                                      F and up 
                                                     0      645.9321873       -0.04258430    0.00000000
                                                     1      134.7547401      -20.22224090    0.00000000
                                                     2       42.3074619     -101.86951720    0.00000000
                                                     2       12.0003227      -41.61957840    0.00000000
                                                     2        4.1260454       -4.69861600    0.00000000
                                      S - F
                                                     0      117.6251862        2.79105590    0.00000000
                                                     1       22.9646089       41.94894590    0.00000000
                                                     2        4.5225298       67.72718660    0.00000000
                                      P - F
                                                     0       47.1953145        4.99111440    0.00000000
                                                     1       48.0356033       20.71931720    0.00000000
                                                     2       19.4541456      195.58677580    0.00000000
                                                     2        4.0512875       48.28771760    0.00000000
                                      D - F
                                                     0       79.9073983        3.00492260    0.00000000
                                                     1       45.8263798       25.93779890    0.00000000
                                                     2       26.9903522      125.12449340    0.00000000
                                                     2        9.6835718       70.76340220    0.00000000
                                                     2        2.7995666       15.04928220    0.00000000
   12          8
                                   No pseudopotential on this center.
   13         40           12
                                      F and up 
                                                     0      645.9321873       -0.04258430    0.00000000
                                                     1      134.7547401      -20.22224090    0.00000000
                                                     2       42.3074619     -101.86951720    0.00000000
                                                     2       12.0003227      -41.61957840    0.00000000
                                                     2        4.1260454       -4.69861600    0.00000000
                                      S - F
                                                     0      117.6251862        2.79105590    0.00000000
                                                     1       22.9646089       41.94894590    0.00000000
                                                     2        4.5225298       67.72718660    0.00000000
                                      P - F
                                                     0       47.1953145        4.99111440    0.00000000
                                                     1       48.0356033       20.71931720    0.00000000
                                                     2       19.4541456      195.58677580    0.00000000
                                                     2        4.0512875       48.28771760    0.00000000
                                      D - F
                                                     0       79.9073983        3.00492260    0.00000000
                                                     1       45.8263798       25.93779890    0.00000000
                                                     2       26.9903522      125.12449340    0.00000000
                                                     2        9.6835718       70.76340220    0.00000000
                                                     2        2.7995666       15.04928220    0.00000000
   14          8
                                   No pseudopotential on this center.
   15         40           12
                                      F and up 
                                                     0      645.9321873       -0.04258430    0.00000000
                                                     1      134.7547401      -20.22224090    0.00000000
                                                     2       42.3074619     -101.86951720    0.00000000
                                                     2       12.0003227      -41.61957840    0.00000000
                                                     2        4.1260454       -4.69861600    0.00000000
                                      S - F
                                                     0      117.6251862        2.79105590    0.00000000
                                                     1       22.9646089       41.94894590    0.00000000
                                                     2        4.5225298       67.72718660    0.00000000
                                      P - F
                                                     0       47.1953145        4.99111440    0.00000000
                                                     1       48.0356033       20.71931720    0.00000000
                                                     2       19.4541456      195.58677580    0.00000000
                                                     2        4.0512875       48.28771760    0.00000000
                                      D - F
                                                     0       79.9073983        3.00492260    0.00000000
                                                     1       45.8263798       25.93779890    0.00000000
                                                     2       26.9903522      125.12449340    0.00000000
                                                     2        9.6835718       70.76340220    0.00000000
                                                     2        2.7995666       15.04928220    0.00000000
   16          8
                                   No pseudopotential on this center.
   17          8
                                   No pseudopotential on this center.
   18          8
                                   No pseudopotential on this center.
   19          8
                                   No pseudopotential on this center.
   20          8
                                   No pseudopotential on this center.
   21          8
                                   No pseudopotential on this center.
   22          8
                                   No pseudopotential on this center.
   23          8
                                   No pseudopotential on this center.
   24          8
                                   No pseudopotential on this center.
   25          1
                                   No pseudopotential on this center.
   26          1
                                   No pseudopotential on this center.
   27          1
                                   No pseudopotential on this center.
   28          1
                                   No pseudopotential on this center.
   29          1
                                   No pseudopotential on this center.
   30          1
                                   No pseudopotential on this center.
   31          1
                                   No pseudopotential on this center.
   32          1
                                   No pseudopotential on this center.
   33          1
                                   No pseudopotential on this center.
   34          8
                                   No pseudopotential on this center.
   35          1
                                   No pseudopotential on this center.
   36          8
                                   No pseudopotential on this center.
   37          1
                                   No pseudopotential on this center.
   38          8
                                   No pseudopotential on this center.
   39          1
                                   No pseudopotential on this center.
   40          8
                                   No pseudopotential on this center.
   41          1
                                   No pseudopotential on this center.
   42          8
                                   No pseudopotential on this center.
   43          1
                                   No pseudopotential on this center.
   44          8
                                   No pseudopotential on this center.
   45          1
                                   No pseudopotential on this center.
   46          8
                                   No pseudopotential on this center.
   47          1
                                   No pseudopotential on this center.
   48          8
                                   No pseudopotential on this center.
   49          1
                                   No pseudopotential on this center.
   50          8
                                   No pseudopotential on this center.
   51          1
                                   No pseudopotential on this center.
 ======================================================================================================
 There are   637 symmetry adapted cartesian basis functions of A   symmetry.
 There are   600 symmetry adapted basis functions of A   symmetry.
   600 basis functions,  1230 primitive gaussians,   637 cartesian basis functions
   161 alpha electrons      161 beta electrons
       nuclear repulsion energy      5668.2213017931 Hartrees.
 NAtoms=   51 NActive=   51 NUniq=   51 SFac= 1.00D+00 NAtFMM=   60 NAOKFM=F Big=F
 Integral buffers will be    131072 words long.
 Raffenetti 2 integral format.
 Two-electron integral symmetry is turned on.
 One-electron integrals computed using PRISM.
   1 Symmetry operations used in ECPInt.
 ECPInt:  NShTT=   21321 NPrTT=  126439 LenC2=   15412 LenP2D=   51819.
 LDataN:  DoStor=T MaxTD1= 5 Len=  102
 Number of processors reduced to  12 by ecpmxn.
 NBasis=   600 RedAO= T EigKep=  2.63D-03  NBF=   600
 NBsUse=   600 1.00D-06 EigRej= -1.00D+00 NBFU=   600
 Defaulting to unpruned grid for atomic number  40.
 Defaulting to unpruned grid for atomic number  40.
 Defaulting to unpruned grid for atomic number  40.
 ExpMin= 2.43D-02 ExpMax= 1.61D+04 ExpMxC= 2.43D+03 IAcc=3 IRadAn=         5 AccDes= 0.00D+00
 Harris functional with IExCor=  402 and IRadAn=       5 diagonalized for initial guess.
 HarFok:  IExCor=  402 AccDes= 0.00D+00 IRadAn=         5 IDoV= 1 UseB2=F ITyADJ=14
 ICtDFT=  3500011 ScaDFX=  1.000000  1.000000  1.000000  1.000000
 Defaulting to unpruned grid for atomic number  40.
 FoFCou: FMM=F IPFlag=           0 FMFlag=      100000 FMFlg1=           0
         NFxFlg=           0 DoJE=T BraDBF=F KetDBF=T FulRan=T
         wScrn=  0.000000 ICntrl=       500 IOpCl=  0 I1Cent=   200000004 NGrid=           0
         NMat0=    1 NMatS0=      1 NMatT0=    0 NMatD0=    1 NMtDS0=    0 NMtDT0=    0
 Petite list used in FoFCou.
 Requested convergence on RMS density matrix=1.00D-08 within 128 cycles.
 Requested convergence on MAX density matrix=1.00D-06.
 Requested convergence on             energy=1.00D-06.
 No special actions if energy rises.
 Defaulting to unpruned grid for atomic number  40.
 Defaulting to unpruned grid for atomic number  40.
 Defaulting to unpruned grid for atomic number  40.
 Defaulting to unpruned grid for atomic number  40.
 Defaulting to unpruned grid for atomic number  40.
 Defaulting to unpruned grid for atomic number  40.
 Defaulting to unpruned grid for atomic number  40.
 Defaulting to unpruned grid for atomic number  40.
 Defaulting to unpruned grid for atomic number  40.
 Defaulting to unpruned grid for atomic number  40.
 Defaulting to unpruned grid for atomic number  40.
 Defaulting to unpruned grid for atomic number  40.
 Defaulting to unpruned grid for atomic number  40.
 Defaulting to unpruned grid for atomic number  40.
 Defaulting to unpruned grid for atomic number  40.
 Defaulting to unpruned grid for atomic number  40.
 SCF Done:  E(RB3LYP) =  -3237.56754034     A.U. after   17 cycles
            NFock= 17  Conv=0.50D-08     -V/T= 2.0473

 **********************************************************************

            Population analysis using the SCF Density.

 **********************************************************************

 Orbital symmetries:
       Occupied  (A) (A) (A) (A) (A) (A) (A) (A) (A) (A) (A) (A)
                 (A) (A) (A) (A) (A) (A) (A) (A) (A) (A) (A) (A)
                 (A) (A) (A) (A) (A) (A) (A) (A) (A) (A) (A) (A)
                 (A) (A) (A) (A) (A) (A) (A) (A) (A) (A) (A) (A)
                 (A) (A) (A) (A) (A) (A) (A) (A) (A) (A) (A) (A)
                 (A) (A) (A) (A) (A) (A) (A) (A) (A) (A) (A) (A)
                 (A) (A) (A) (A) (A) (A) (A) (A) (A) (A) (A) (A)
                 (A) (A) (A) (A) (A) (A) (A) (A) (A) (A) (A) (A)
                 (A) (A) (A) (A) (A) (A) (A) (A) (A) (A) (A) (A)
                 (A) (A) (A) (A) (A) (A) (A) (A) (A) (A) (A) (A)
                 (A) (A) (A) (A) (A) (A) (A) (A) (A) (A) (A) (A)
                 (A) (A) (A) (A) (A) (A) (A) (A) (A) (A) (A) (A)
                 (A) (A) (A) (A) (A) (A) (A) (A) (A) (A) (A) (A)
                 (A) (A) (A) (A) (A)
       Virtual   (A) (A) (A) (A) (A) (A) (A) (A) (A) (A) (A) (A)
                 (A) (A) (A) (A) (A) (A) (A) (A) (A) (A) (A) (A)
                 (A) (A) (A) (A) (A) (A) (A) (A) (A) (A) (A) (A)
                 (A) (A) (A) (A) (A) (A) (A) (A) (A) (A) (A) (A)
                 (A) (A) (A) (A) (A) (A) (A) (A) (A) (A) (A) (A)
                 (A) (A) (A) (A) (A) (A) (A) (A) (A) (A) (A) (A)
                 (A) (A) (A) (A) (A) (A) (A) (A) (A) (A) (A) (A)
                 (A) (A) (A) (A) (A) (A) (A) (A) (A) (A) (A) (A)
                 (A) (A) (A) (A) (A) (A) (A) (A) (A) (A) (A) (A)
                 (A) (A) (A) (A) (A) (A) (A) (A) (A) (A) (A) (A)
                 (A) (A) (A) (A) (A) (A) (A) (A) (A) (A) (A) (A)
                 (A) (A) (A) (A) (A) (A) (A) (A) (A) (A) (A) (A)
                 (A) (A) (A) (A) (A) (A) (A) (A) (A) (A) (A) (A)
                 (A) (A) (A) (A) (A) (A) (A) (A) (A) (A) (A) (A)
                 (A) (A) (A) (A) (A) (A) (A) (A) (A) (A) (A) (A)
                 (A) (A) (A) (A) (A) (A) (A) (A) (A) (A) (A) (A)
                 (A) (A) (A) (A) (A) (A) (A) (A) (A) (A) (A) (A)
                 (A) (A) (A) (A) (A) (A) (A) (A) (A) (A) (A) (A)
                 (A) (A) (A) (A) (A) (A) (A) (A) (A) (A) (A) (A)
                 (A) (A) (A) (A) (A) (A) (A) (A) (A) (A) (A) (A)
                 (A) (A) (A) (A) (A) (A) (A) (A) (A) (A) (A) (A)
                 (A) (A) (A) (A) (A) (A) (A) (A) (A) (A) (A) (A)
                 (A) (A) (A) (A) (A) (A) (A) (A) (A) (A) (A) (A)
                 (A) (A) (A) (A) (A) (A) (A) (A) (A) (A) (A) (A)
                 (A) (A) (A) (A) (A) (A) (A) (A) (A) (A) (A) (A)
                 (A) (A) (A) (A) (A) (A) (A) (A) (A) (A) (A) (A)
                 (A) (A) (A) (A) (A) (A) (A) (A) (A) (A) (A) (A)
                 (A) (A) (A) (A) (A) (A) (A) (A) (A) (A) (A) (A)
                 (A) (A) (A) (A) (A) (A) (A) (A) (A) (A) (A) (A)
                 (A) (A) (A) (A) (A) (A) (A) (A) (A) (A) (A) (A)
                 (A) (A) (A) (A) (A) (A) (A) (A) (A) (A) (A) (A)
                 (A) (A) (A) (A) (A) (A) (A) (A) (A) (A) (A) (A)
                 (A) (A) (A) (A) (A) (A) (A) (A) (A) (A) (A) (A)
                 (A) (A) (A) (A) (A) (A) (A) (A) (A) (A) (A) (A)
                 (A) (A) (A) (A) (A) (A) (A) (A) (A) (A) (A) (A)
                 (A) (A) (A) (A) (A) (A) (A) (A) (A) (A) (A) (A)
                 (A) (A) (A) (A) (A) (A) (A)
 The electronic state is 1-A.
 Alpha  occ. eigenvalues --  -66.22066 -66.21853 -66.21370 -66.20202 -19.17127
 Alpha  occ. eigenvalues --  -19.17043 -19.16398 -19.16362 -19.16151 -19.16017
 Alpha  occ. eigenvalues --  -19.15856 -19.15823 -19.15735 -19.15725 -19.15547
 Alpha  occ. eigenvalues --  -19.15264 -19.15157 -19.14692 -19.14584 -19.14311
 Alpha  occ. eigenvalues --  -19.14284 -19.14274 -19.14245 -19.14103 -19.13391
 Alpha  occ. eigenvalues --  -19.13198 -19.12577 -19.12131 -19.11637  -5.36084
 Alpha  occ. eigenvalues --   -5.36028  -5.35564  -5.34411  -3.72058  -3.72047
 Alpha  occ. eigenvalues --   -3.72024  -3.71993  -3.71987  -3.71920  -3.71627
 Alpha  occ. eigenvalues --   -3.71481  -3.71406  -3.70406  -3.70359  -3.70287
 Alpha  occ. eigenvalues --   -2.08268  -2.06941  -2.06812  -2.05085  -1.29325
 Alpha  occ. eigenvalues --   -1.28933  -1.28525  -1.27980  -1.27752  -1.27688
 Alpha  occ. eigenvalues --   -1.27180  -1.27153  -1.26742  -1.25729  -1.25477
 Alpha  occ. eigenvalues --   -1.25138  -1.05294  -1.04337  -1.03085  -1.01945
 Alpha  occ. eigenvalues --   -1.01440  -1.01177  -1.00980  -0.99760  -0.99486
 Alpha  occ. eigenvalues --   -0.98775  -0.98551  -0.98347  -0.97940  -0.97434
 Alpha  occ. eigenvalues --   -0.96691  -0.96347  -0.95481  -0.95060  -0.94968
 Alpha  occ. eigenvalues --   -0.93893  -0.93671  -0.92088  -0.91199  -0.89531
 Alpha  occ. eigenvalues --   -0.88443  -0.61678  -0.59600  -0.58809  -0.55897
 Alpha  occ. eigenvalues --   -0.54417  -0.53586  -0.52327  -0.52130  -0.51471
 Alpha  occ. eigenvalues --   -0.51374  -0.51055  -0.51021  -0.50788  -0.50193
 Alpha  occ. eigenvalues --   -0.50126  -0.49103  -0.48875  -0.47755  -0.46762
 Alpha  occ. eigenvalues --   -0.45636  -0.45561  -0.44786  -0.42797  -0.42050
 Alpha  occ. eigenvalues --   -0.41474  -0.41393  -0.40583  -0.40404  -0.40232
 Alpha  occ. eigenvalues --   -0.39693  -0.39552  -0.39201  -0.38964  -0.38430
 Alpha  occ. eigenvalues --   -0.37864  -0.37522  -0.37373  -0.37208  -0.36850
 Alpha  occ. eigenvalues --   -0.36685  -0.36134  -0.35967  -0.35758  -0.35622
 Alpha  occ. eigenvalues --   -0.35419  -0.35224  -0.35118  -0.34959  -0.34909
 Alpha  occ. eigenvalues --   -0.34655  -0.34294  -0.34248  -0.34110  -0.33986
 Alpha  occ. eigenvalues --   -0.33780  -0.33466  -0.33415  -0.33185  -0.33042
 Alpha  occ. eigenvalues --   -0.32863  -0.32581  -0.32525  -0.32236  -0.31971
 Alpha  occ. eigenvalues --   -0.31792  -0.31653  -0.31475  -0.31143  -0.31003
 Alpha  occ. eigenvalues --   -0.30807  -0.30751  -0.30200  -0.29527  -0.29139
 Alpha  occ. eigenvalues --   -0.28617
 Alpha virt. eigenvalues --   -0.05223  -0.04768  -0.04429  -0.03413  -0.02867
 Alpha virt. eigenvalues --   -0.02690  -0.01898  -0.01592  -0.01328  -0.01099
 Alpha virt. eigenvalues --   -0.00660  -0.00594  -0.00356   0.00039   0.00522
 Alpha virt. eigenvalues --    0.00665   0.00922   0.01399   0.01521   0.01808
 Alpha virt. eigenvalues --    0.02333   0.02479   0.02784   0.02956   0.03214
 Alpha virt. eigenvalues --    0.03786   0.04085   0.04203   0.05004   0.05429
 Alpha virt. eigenvalues --    0.05768   0.05836   0.06228   0.06564   0.07121
 Alpha virt. eigenvalues --    0.08118   0.08293   0.08683   0.09569   0.10250
 Alpha virt. eigenvalues --    0.10505   0.11193   0.11858   0.12464   0.12838
 Alpha virt. eigenvalues --    0.13450   0.13902   0.14589   0.15043   0.15259
 Alpha virt. eigenvalues --    0.15844   0.16269   0.16574   0.16710   0.16942
 Alpha virt. eigenvalues --    0.17558   0.18010   0.18150   0.18407   0.18718
 Alpha virt. eigenvalues --    0.19160   0.19433   0.19692   0.20262   0.20814
 Alpha virt. eigenvalues --    0.20945   0.21261   0.21512   0.22202   0.22274
 Alpha virt. eigenvalues --    0.22543   0.22770   0.22898   0.23330   0.24134
 Alpha virt. eigenvalues --    0.24229   0.24451   0.24756   0.25062   0.25656
 Alpha virt. eigenvalues --    0.25953   0.26652   0.26804   0.27467   0.27603
 Alpha virt. eigenvalues --    0.28297   0.28681   0.29347   0.30002   0.30089
 Alpha virt. eigenvalues --    0.30526   0.31144   0.31289   0.32024   0.32633
 Alpha virt. eigenvalues --    0.33334   0.33730   0.34115   0.34597   0.35188
 Alpha virt. eigenvalues --    0.36041   0.36644   0.36900   0.37547   0.37929
 Alpha virt. eigenvalues --    0.38404   0.39521   0.40861   0.41230   0.41814
 Alpha virt. eigenvalues --    0.42241   0.44560   0.45069   0.46522   0.46895
 Alpha virt. eigenvalues --    0.49273   0.49949   0.52046   0.55471   0.56398
 Alpha virt. eigenvalues --    0.58090   0.59583   0.60462   0.64636   0.66548
 Alpha virt. eigenvalues --    0.67353   0.76571   0.76836   0.78719   0.79656
 Alpha virt. eigenvalues --    0.80205   0.80985   0.81172   0.82064   0.83595
 Alpha virt. eigenvalues --    0.83710   0.84013   0.84824   0.85904   0.86735
 Alpha virt. eigenvalues --    0.86876   0.87904   0.88934   0.89602   0.90366
 Alpha virt. eigenvalues --    0.90709   0.91747   0.92160   0.92400   0.93200
 Alpha virt. eigenvalues --    0.93294   0.93965   0.94425   0.94900   0.95575
 Alpha virt. eigenvalues --    0.96317   0.96529   0.96766   0.97415   0.97515
 Alpha virt. eigenvalues --    0.97661   0.98143   0.98370   0.98632   0.99240
 Alpha virt. eigenvalues --    0.99376   1.00057   1.00642   1.00926   1.01222
 Alpha virt. eigenvalues --    1.02380   1.02909   1.03247   1.03372   1.03904
 Alpha virt. eigenvalues --    1.04706   1.05555   1.05865   1.06427   1.06456
 Alpha virt. eigenvalues --    1.07341   1.07530   1.08148   1.08723   1.08975
 Alpha virt. eigenvalues --    1.09438   1.09667   1.10353   1.10596   1.11034
 Alpha virt. eigenvalues --    1.11987   1.12678   1.13355   1.13830   1.14333
 Alpha virt. eigenvalues --    1.14790   1.15761   1.16239   1.16650   1.17192
 Alpha virt. eigenvalues --    1.17573   1.18167   1.18830   1.19102   1.19257
 Alpha virt. eigenvalues --    1.19584   1.20057   1.20862   1.21118   1.21681
 Alpha virt. eigenvalues --    1.21930   1.22577   1.23025   1.24025   1.24404
 Alpha virt. eigenvalues --    1.25681   1.26539   1.26852   1.27602   1.27903
 Alpha virt. eigenvalues --    1.29061   1.29629   1.30848   1.31232   1.32223
 Alpha virt. eigenvalues --    1.33791   1.34282   1.35325   1.36830   1.37856
 Alpha virt. eigenvalues --    1.42457   1.43357   1.44709   1.45443   1.47138
 Alpha virt. eigenvalues --    1.47806   1.49136   1.50266   1.50869   1.51103
 Alpha virt. eigenvalues --    1.51855   1.52459   1.53681   1.53959   1.54211
 Alpha virt. eigenvalues --    1.55155   1.55491   1.55919   1.56078   1.56638
 Alpha virt. eigenvalues --    1.56911   1.57486   1.57755   1.58305   1.58472
 Alpha virt. eigenvalues --    1.58751   1.58977   1.59397   1.60158   1.60359
 Alpha virt. eigenvalues --    1.61069   1.62131   1.62215   1.62482   1.62804
 Alpha virt. eigenvalues --    1.63308   1.63786   1.63940   1.64487   1.64671
 Alpha virt. eigenvalues --    1.65626   1.65791   1.66144   1.66798   1.66974
 Alpha virt. eigenvalues --    1.67507   1.68063   1.68724   1.70466   1.70763
 Alpha virt. eigenvalues --    1.71261   1.71674   1.71947   1.72547   1.72738
 Alpha virt. eigenvalues --    1.73394   1.73449   1.74137   1.74876   1.75319
 Alpha virt. eigenvalues --    1.75600   1.76396   1.76994   1.77538   1.77774
 Alpha virt. eigenvalues --    1.78193   1.78361   1.78611   1.78904   1.79365
 Alpha virt. eigenvalues --    1.79600   1.80494   1.80811   1.81156   1.81519
 Alpha virt. eigenvalues --    1.81630   1.82095   1.82317   1.82857   1.83054
 Alpha virt. eigenvalues --    1.83514   1.83764   1.84376   1.85206   1.85452
 Alpha virt. eigenvalues --    1.85714   1.86163   1.86383   1.86649   1.86913
 Alpha virt. eigenvalues --    1.87032   1.87506   1.87904   1.88561   1.89201
 Alpha virt. eigenvalues --    1.90136   1.90878   1.91000   1.91725   1.92678
 Alpha virt. eigenvalues --    1.92878   1.93247   1.94535   1.95139   1.97160
 Alpha virt. eigenvalues --    1.97498   1.98295   1.99433   2.01198   2.01546
 Alpha virt. eigenvalues --    2.04358   2.05600   2.08981   2.09241   2.11724
 Alpha virt. eigenvalues --    2.15027   2.18997   2.31638   2.33745   2.33996
 Alpha virt. eigenvalues --    2.34462   2.35021   2.35147   2.36286   2.36550
 Alpha virt. eigenvalues --    2.36989   2.37969   2.38010   2.39628   2.39714
 Alpha virt. eigenvalues --    2.39900   2.40671   2.41070   2.42456   2.44572
 Alpha virt. eigenvalues --    2.45052   2.46504   2.47960   2.49642   2.52239
 Alpha virt. eigenvalues --    2.55831   2.56283   2.58376   2.59158   2.59728
 Alpha virt. eigenvalues --    2.60126   2.60772   2.61236   2.61628   2.61978
 Alpha virt. eigenvalues --    2.62064   2.62311   2.62508   2.62783   2.63005
 Alpha virt. eigenvalues --    2.63065   2.63135   2.63529   2.63775   2.64155
 Alpha virt. eigenvalues --    2.64552   2.64654   2.65537   2.65622   2.65726
 Alpha virt. eigenvalues --    2.65960   2.66475   2.67537   2.68560   2.69272
 Alpha virt. eigenvalues --    2.69692   2.70619   2.70929   2.73054   2.74041
 Alpha virt. eigenvalues --    2.74546   2.74732   2.76623   2.76765   2.77487
 Alpha virt. eigenvalues --    2.77577   2.78046   2.81916   2.82652   2.84793
 Alpha virt. eigenvalues --    2.86757   2.93406   3.40456   3.40713   3.40929
 Alpha virt. eigenvalues --    3.41418   3.41985   3.43365   3.43871   3.45078
 Alpha virt. eigenvalues --    3.46065   3.46562   3.47237   3.47743   3.49159
 Alpha virt. eigenvalues --    3.49837   3.52106   3.54300   3.54936   3.55393
 Alpha virt. eigenvalues --    4.72910   6.23831   6.64568   7.77897
          Condensed to atoms (all electrons):
 Mulliken charges:
               1
     1  Si   1.295377
     2  O   -0.649246
     3  O   -0.649862
     4  O   -0.648934
     5  O   -0.755185
     6  Zr   1.611914
     7  Si   1.123926
     8  Si   1.162781
     9  Si   1.135885
    10  O   -0.820583
    11  Zr   1.494440
    12  O   -0.863950
    13  Zr   1.591703
    14  O   -0.827892
    15  Zr   1.550494
    16  O   -0.626902
    17  O   -0.574108
    18  O   -0.666395
    19  O   -0.626429
    20  O   -0.610549
    21  O   -0.644236
    22  O   -0.578223
    23  O   -0.653110
    24  O   -0.618533
    25  H    0.355008
    26  H    0.334204
    27  H    0.367295
    28  H    0.370352
    29  H    0.365507
    30  H    0.337895
    31  H    0.336663
    32  H    0.381334
    33  H    0.344277
    34  O   -0.695207
    35  H    0.332501
    36  O   -0.706900
    37  H    0.365687
    38  O   -0.749253
    39  H    0.331333
    40  O   -0.763595
    41  H    0.371863
    42  O   -0.694123
    43  H    0.334173
    44  O   -0.699144
    45  H    0.335366
    46  O   -0.762539
    47  H    0.380822
    48  O   -0.742455
    49  H    0.340348
    50  O   -0.691623
    51  H    0.367827
 Sum of Mulliken charges =  -0.00000
 Mulliken charges with hydrogens summed into heavy atoms:
               1
     1  Si   1.295377
     2  O   -0.649246
     3  O   -0.649862
     4  O   -0.648934
     5  O   -0.755185
     6  Zr   1.611914
     7  Si   1.123926
     8  Si   1.162781
     9  Si   1.135885
    10  O   -0.820583
    11  Zr   1.494440
    12  O   -0.863950
    13  Zr   1.591703
    14  O   -0.827892
    15  Zr   1.550494
    16  O   -0.289007
    17  O   -0.237445
    18  O   -0.300887
    19  O   -0.282152
    20  O   -0.240197
    21  O   -0.262902
    22  O   -0.244019
    23  O   -0.298102
    24  O   -0.251237
    34  O   -0.362706
    36  O   -0.341213
    38  O   -0.417920
    40  O   -0.391732
    42  O   -0.359950
    44  O   -0.363779
    46  O   -0.381717
    48  O   -0.402107
    50  O   -0.323796
 Electronic spatial extent (au):  <R**2>=          25052.8254
 Charge=             -0.0000 electrons
 Dipole moment (field-independent basis, Debye):
    X=              2.1263    Y=              4.4720    Z=              0.8780  Tot=              5.0290
 Quadrupole moment (field-independent basis, Debye-Ang):
   XX=           -294.7991   YY=           -258.1953   ZZ=           -261.4109
   XY=              3.2626   XZ=              7.4851   YZ=             -8.2246
 Traceless Quadrupole moment (field-independent basis, Debye-Ang):
   XX=            -23.3307   YY=             13.2732   ZZ=             10.0575
   XY=              3.2626   XZ=              7.4851   YZ=             -8.2246
 Octapole moment (field-independent basis, Debye-Ang**2):
  XXX=            325.0533  YYY=            102.5486  ZZZ=            -43.3537  XYY=            157.5845
  XXY=             64.3915  XXZ=            -28.4981  XZZ=            123.7873  YZZ=             10.1925
  YYZ=            -18.1540  XYZ=             58.8383
 Hexadecapole moment (field-independent basis, Debye-Ang**3):
 XXXX=         -22686.7165 YYYY=          -5701.9195 ZZZZ=          -4890.2406 XXXY=            130.9183
 XXXZ=            -10.4261 YYYX=             38.3639 YYYZ=             23.7960 ZZZX=             55.1828
 ZZZY=            -70.0910 XXYY=          -4661.5870 XXZZ=          -3808.9345 YYZZ=          -1734.6004
 XXYZ=           -512.2632 YYXZ=           -166.4689 ZZXY=            180.6002
 N-N= 5.668221301793D+03 E-N=-1.893708307110D+04  KE= 3.091319101586D+03
   1 Symmetry operations used in ECPInt.
 ECPInt:  NShTT=   21321 NPrTT=  126439 LenC2=   15412 LenP2D=   51819.
 LDataN:  DoStor=T MaxTD1= 6 Len=  172
 Number of processors reduced to  14 by ecpmxn.
 Calling FoFJK, ICntrl=      2127 FMM=F ISym2X=0 I1Cent= 0 IOpClX= 0 NMat=1 NMatS=1 NMatT=0.
 Defaulting to unpruned grid for atomic number  40.
 Defaulting to unpruned grid for atomic number  40.
 Defaulting to unpruned grid for atomic number  40.
 Defaulting to unpruned grid for atomic number  40.
 Defaulting to unpruned grid for atomic number  40.
 Defaulting to unpruned grid for atomic number  40.
 Defaulting to unpruned grid for atomic number  40.
 Defaulting to unpruned grid for atomic number  40.
 Defaulting to unpruned grid for atomic number  40.
 Defaulting to unpruned grid for atomic number  40.
 Defaulting to unpruned grid for atomic number  40.
 Defaulting to unpruned grid for atomic number  40.
 Defaulting to unpruned grid for atomic number  40.
 Defaulting to unpruned grid for atomic number  40.
 Defaulting to unpruned grid for atomic number  40.
 Defaulting to unpruned grid for atomic number  40.
 ***** Axes restored to original set *****
 -------------------------------------------------------------------
 Center     Atomic                   Forces (Hartrees/Bohr)
 Number     Number              X              Y              Z
 -------------------------------------------------------------------
      1       14          -0.000007691    0.000000276    0.000004586
      2        8           0.000000532   -0.000001510   -0.000007184
      3        8           0.000006140   -0.000002485   -0.000000309
      4        8           0.000003486    0.000003989    0.000000511
      5        8           0.000003122    0.000000821   -0.000001642
      6       40           0.000000600   -0.000003160    0.000000469
      7       14           0.000000468    0.000005131    0.000002614
      8       14          -0.000003872   -0.000000426    0.000008799
      9       14          -0.000000571   -0.000002449    0.000002565
     10        8          -0.000000134    0.000001343    0.000000358
     11       40           0.000001170    0.000001809    0.000000805
     12        8          -0.000001169    0.000000687   -0.000000670
     13       40           0.000003412   -0.000002305   -0.000003093
     14        8           0.000001768    0.000002350    0.000000645
     15       40          -0.000000461   -0.000005487   -0.000000539
     16        8          -0.000002229    0.000001255   -0.000004993
     17        8          -0.000001137   -0.000001708    0.000000044
     18        8           0.000000645   -0.000000656   -0.000004378
     19        8          -0.000000711   -0.000004224    0.000000336
     20        8          -0.000003851    0.000000102   -0.000003201
     21        8           0.000001210   -0.000002290    0.000001514
     22        8           0.000001395   -0.000001784   -0.000004936
     23        8          -0.000000760    0.000001015   -0.000000101
     24        8          -0.000000832    0.000001008   -0.000002683
     25        1           0.000000484   -0.000000899    0.000000638
     26        1          -0.000001816    0.000001568    0.000000716
     27        1           0.000000382   -0.000000116   -0.000000011
     28        1           0.000003753   -0.000002284    0.000003475
     29        1           0.000000883    0.000002234    0.000001358
     30        1          -0.000000418   -0.000001440    0.000003074
     31        1           0.000000958    0.000000508    0.000001629
     32        1           0.000000526    0.000000024   -0.000001287
     33        1           0.000000128   -0.000001060   -0.000000441
     34        8          -0.000000854    0.000001100    0.000001294
     35        1           0.000001026    0.000001753   -0.000001826
     36        8          -0.000001683   -0.000001096   -0.000002158
     37        1           0.000000025    0.000000979    0.000001264
     38        8          -0.000000415    0.000005254    0.000001627
     39        1           0.000000699   -0.000003648   -0.000004042
     40        8          -0.000000051    0.000003295   -0.000006750
     41        1          -0.000000704   -0.000001717    0.000006438
     42        8           0.000002288    0.000004535   -0.000001907
     43        1          -0.000001968   -0.000001743    0.000002659
     44        8           0.000000888   -0.000001390    0.000000762
     45        1          -0.000001908    0.000005018    0.000004164
     46        8          -0.000001036    0.000006120   -0.000000855
     47        1           0.000000633   -0.000004850   -0.000000860
     48        8           0.000001138    0.000001298    0.000003806
     49        1          -0.000001285   -0.000002158   -0.000003393
     50        8          -0.000003215   -0.000001015    0.000001215
     51        1           0.000001012   -0.000001575   -0.000000105
 -------------------------------------------------------------------
 Cartesian Forces:  Max     0.000008799 RMS     0.000002622

 GradGradGradGradGradGradGradGradGradGradGradGradGradGradGradGradGradGrad
 Berny optimization.
 FormGI is forming the generalized inverse of G from B-inverse, IUseBI=4.
 Internal  Forces:  Max     0.000011765 RMS     0.000001960
 Search for a local minimum.
 Step number   1 out of a maximum of  229
 All quantities printed in internal units (Hartrees-Bohrs-Radians)
 Mixed Optimization -- En-DIIS/RFO-DIIS
 Second derivative matrix not updated -- first step.
 ITU=  0
     Eigenvalues ---    0.00230   0.00230   0.00230   0.00230   0.00230
     Eigenvalues ---    0.00230   0.00230   0.00230   0.00230   0.00230
     Eigenvalues ---    0.00230   0.00230   0.00230   0.00230   0.00230
     Eigenvalues ---    0.00230   0.03447   0.03470   0.03516   0.03601
     Eigenvalues ---    0.03614   0.03629   0.03654   0.03686   0.03816
     Eigenvalues ---    0.03823   0.03827   0.03839   0.03923   0.03964
     Eigenvalues ---    0.04008   0.04039   0.06239   0.08354   0.08564
     Eigenvalues ---    0.08974   0.09448   0.10123   0.10678   0.11232
     Eigenvalues ---    0.11368   0.11507   0.11595   0.11636   0.11773
     Eigenvalues ---    0.11825   0.11923   0.12003   0.12146   0.12566
     Eigenvalues ---    0.12661   0.12746   0.12781   0.12915   0.12948
     Eigenvalues ---    0.13420   0.16000   0.16000   0.16000   0.16000
     Eigenvalues ---    0.16000   0.16000   0.16000   0.16000   0.16000
     Eigenvalues ---    0.16000   0.16000   0.16000   0.16000   0.16000
     Eigenvalues ---    0.16000   0.16000   0.16000   0.16000   0.16475
     Eigenvalues ---    0.16652   0.16973   0.17555   0.17903   0.18060
     Eigenvalues ---    0.18629   0.18751   0.19259   0.19512   0.19624
     Eigenvalues ---    0.19663   0.19719   0.19731   0.19849   0.20192
     Eigenvalues ---    0.20247   0.20296   0.20320   0.20376   0.20393
     Eigenvalues ---    0.20422   0.20645   0.20651   0.20806   0.20824
     Eigenvalues ---    0.20868   0.21021   0.21050   0.21076   0.21270
     Eigenvalues ---    0.21906   0.25000   0.25000   0.25000   0.25000
     Eigenvalues ---    0.25000   0.25000   0.40115   0.40361   0.40848
     Eigenvalues ---    0.41777   0.41931   0.42098   0.42374   0.42741
     Eigenvalues ---    0.44274   0.44356   0.44406   0.44546   0.45586
     Eigenvalues ---    0.46106   0.46669   0.47064   0.51271   0.51297
     Eigenvalues ---    0.51607   0.51682   0.51719   0.52103   0.52343
     Eigenvalues ---    0.52512   0.53065   0.54681   0.54684   0.54737
     Eigenvalues ---    0.54743   0.54756   0.54764   0.55003   0.55452
     Eigenvalues ---    0.556791000.000001000.000001000.000001000.00000
     Eigenvalues --- 1000.000001000.000001000.000001000.000001000.00000
     Eigenvalues --- 1000.000001000.000001000.000001000.000001000.00000
     Eigenvalues --- 1000.000001000.000001000.000001000.000001000.00000
     Eigenvalues --- 1000.000001000.000001000.000001000.000001000.00000
     Eigenvalues --- 1000.000001000.000001000.000001000.000001000.00000
     Eigenvalues --- 1000.000001000.000001000.000001000.000001000.00000
     Eigenvalues --- 1000.000001000.000001000.000001000.000001000.00000
     Eigenvalues --- 1000.000001000.000001000.000001000.000001000.00000
     Eigenvalues --- 1000.000001000.000001000.000001000.000001000.00000
     Eigenvalues --- 1000.000001000.000001000.000001000.000001000.00000
     Eigenvalues --- 1000.000001000.000001000.000001000.000001000.00000
     Eigenvalues --- 1000.000001000.000001000.000001000.000001000.00000
     Eigenvalues --- 1000.000001000.000001000.000001000.000001000.00000
     Eigenvalues --- 1000.000001000.000001000.000001000.00000
 RFO step:  Lambda= 0.00000000D+00 EMin= 2.30000000D-03
 Linear search not attempted -- first point.
 Iteration  1 RMS(Cart)=  0.00080940 RMS(Int)=  0.00000014
 Iteration  2 RMS(Cart)=  0.00000025 RMS(Int)=  0.00000000
 Iteration  1 RMS(Cart)=  0.00000000 RMS(Int)=  0.00000000
 Variable       Old X    -DE/DX   Delta X   Delta X   Delta X     New X
                                 (Linear)    (Quad)   (Total)
    R1        3.09828  -0.00000   0.00000  -0.00001  -0.00001   3.09827
    R2        3.12499  -0.00000   0.00000  -0.00001  -0.00001   3.12498
    R3        3.09671  -0.00000   0.00000  -0.00000  -0.00000   3.09671
    R4        3.06649   0.00000   0.00000   0.00001   0.00001   3.06650
    R5        3.07712   0.00000   0.00000   0.00001   0.00001   3.07713
    R6        3.11691   0.00000   0.00000   0.00001   0.00001   3.11692
    R7        3.14118   0.00000   0.00000   0.00001   0.00001   3.14118
    R8        3.80049  -0.00000   0.00000  -0.00000  -0.00000   3.80049
    R9        3.64784  -0.00000   0.00000  -0.00001  -0.00001   3.64783
   R10        3.82476  -0.00000   0.00000  -0.00001  -0.00001   3.82475
   R11        3.72227   0.00000   0.00000   0.00001   0.00001   3.72228
   R12        3.15098   0.00000   0.00000   0.00001   0.00001   3.15099
   R13        3.08301  -0.00000   0.00000  -0.00000  -0.00000   3.08301
   R14        3.12149   0.00000   0.00000   0.00000   0.00000   3.12149
   R15        3.12908   0.00000   0.00000   0.00001   0.00001   3.12909
   R16        3.09506  -0.00000   0.00000  -0.00000  -0.00000   3.09506
   R17        3.12711  -0.00000   0.00000  -0.00001  -0.00001   3.12710
   R18        3.09730   0.00000   0.00000   0.00001   0.00001   3.09731
   R19        3.14766   0.00000   0.00000   0.00000   0.00000   3.14766
   R20        3.07084  -0.00000   0.00000  -0.00000  -0.00000   3.07084
   R21        3.84640  -0.00000   0.00000  -0.00001  -0.00001   3.84639
   R22        3.71852  -0.00000   0.00000  -0.00000  -0.00000   3.71852
   R23        3.67542  -0.00000   0.00000  -0.00001  -0.00001   3.67541
   R24        3.83859  -0.00000   0.00000  -0.00000  -0.00000   3.83859
   R25        3.72623  -0.00000   0.00000  -0.00000  -0.00000   3.72623
   R26        3.78033  -0.00000   0.00000  -0.00001  -0.00001   3.78033
   R27        3.78652   0.00000   0.00000   0.00000   0.00000   3.78652
   R28        3.66752   0.00000   0.00000   0.00001   0.00001   3.66753
   R29        3.75387  -0.00000   0.00000  -0.00000  -0.00000   3.75387
   R30        3.75845  -0.00000   0.00000  -0.00001  -0.00001   3.75844
   R31        3.69500   0.00000   0.00000   0.00001   0.00001   3.69500
   R32        3.68179   0.00000   0.00000   0.00002   0.00002   3.68181
   R33        1.82117  -0.00000   0.00000  -0.00001  -0.00001   1.82116
   R34        1.82049   0.00000   0.00000   0.00000   0.00000   1.82050
   R35        1.85304  -0.00000   0.00000  -0.00001  -0.00001   1.85303
   R36        1.82114   0.00000   0.00000   0.00000   0.00000   1.82114
   R37        1.84977  -0.00001   0.00000  -0.00001  -0.00001   1.84976
   R38        1.84500   0.00000   0.00000   0.00000   0.00000   1.84501
   R39        1.82042  -0.00000   0.00000  -0.00000  -0.00000   1.82041
   R40        1.83593  -0.00000   0.00000  -0.00000  -0.00000   1.83593
   R41        1.84272   0.00000   0.00000   0.00000   0.00000   1.84272
   R42        1.81830   0.00000   0.00000   0.00000   0.00000   1.81830
   R43        1.84905   0.00000   0.00000   0.00000   0.00000   1.84905
   R44        1.82067   0.00001   0.00000   0.00001   0.00001   1.82068
   R45        1.85279   0.00001   0.00000   0.00001   0.00001   1.85280
   R46        1.81433  -0.00000   0.00000  -0.00001  -0.00001   1.81432
   R47        1.81233   0.00001   0.00000   0.00001   0.00001   1.81234
   R48        1.84870   0.00000   0.00000   0.00001   0.00001   1.84871
   R49        1.82061  -0.00000   0.00000  -0.00001  -0.00001   1.82060
   R50        1.84112  -0.00000   0.00000  -0.00000  -0.00000   1.84112
    A1        1.89403   0.00000   0.00000   0.00001   0.00001   1.89404
    A2        1.88617   0.00000   0.00000   0.00002   0.00002   1.88619
    A3        1.87938  -0.00001   0.00000  -0.00004  -0.00004   1.87934
    A4        1.91364  -0.00000   0.00000   0.00001   0.00001   1.91365
    A5        1.92354   0.00000   0.00000   0.00000   0.00000   1.92354
    A6        1.96515   0.00000   0.00000   0.00000   0.00000   1.96516
    A7        2.84348   0.00000   0.00000   0.00002   0.00002   2.84350
    A8        2.31720   0.00000   0.00000   0.00000   0.00000   2.31720
    A9        2.35610   0.00000   0.00000   0.00001   0.00001   2.35611
   A10        2.38816  -0.00001   0.00000   0.00000   0.00000   2.38816
   A11        1.98022   0.00000   0.00000   0.00002   0.00002   1.98024
   A12        1.98271  -0.00000   0.00000  -0.00002  -0.00002   1.98269
   A13        1.99112   0.00000   0.00000   0.00001   0.00001   1.99113
   A14        1.77332  -0.00000   0.00000  -0.00003  -0.00003   1.77329
   A15        1.88957   0.00000   0.00000   0.00001   0.00001   1.88958
   A16        1.82833   0.00000   0.00000   0.00001   0.00001   1.82834
   A17        1.81235   0.00000   0.00000   0.00001   0.00001   1.81236
   A18        1.98544   0.00000   0.00000   0.00000   0.00000   1.98544
   A19        1.86767  -0.00000   0.00000  -0.00001  -0.00001   1.86766
   A20        1.94580  -0.00000   0.00000  -0.00000  -0.00000   1.94580
   A21        1.92845  -0.00000   0.00000  -0.00001  -0.00001   1.92845
   A22        1.92030   0.00000   0.00000   0.00001   0.00001   1.92031
   A23        1.94596   0.00000   0.00000  -0.00000  -0.00000   1.94596
   A24        1.88055  -0.00000   0.00000  -0.00000  -0.00000   1.88055
   A25        1.93311  -0.00000   0.00000  -0.00000  -0.00000   1.93311
   A26        1.93173  -0.00000   0.00000  -0.00000  -0.00000   1.93173
   A27        1.82723   0.00000   0.00000   0.00000   0.00000   1.82723
   A28        1.94617   0.00000   0.00000   0.00000   0.00000   1.94617
   A29        1.88532  -0.00000   0.00000   0.00000   0.00000   1.88532
   A30        1.89442   0.00000   0.00000   0.00000   0.00000   1.89442
   A31        1.95715   0.00000   0.00000   0.00000   0.00000   1.95715
   A32        1.87632   0.00000   0.00000   0.00000   0.00000   1.87632
   A33        1.94135  -0.00000   0.00000  -0.00000  -0.00000   1.94135
   A34        1.90697  -0.00000   0.00000  -0.00000  -0.00000   1.90697
   A35        2.53227  -0.00001   0.00000  -0.00002  -0.00002   2.53225
   A36        1.81826  -0.00000   0.00000   0.00000   0.00000   1.81826
   A37        1.87907   0.00000   0.00000  -0.00000  -0.00000   1.87907
   A38        2.09284  -0.00000   0.00000  -0.00000  -0.00000   2.09284
   A39        1.80039   0.00000   0.00000   0.00000   0.00000   1.80039
   A40        1.73310   0.00000   0.00000   0.00000   0.00000   1.73310
   A41        2.08556   0.00000   0.00000  -0.00000  -0.00000   2.08556
   A42        2.29331  -0.00000   0.00000  -0.00002  -0.00002   2.29329
   A43        1.83467  -0.00000   0.00000  -0.00001  -0.00001   1.83466
   A44        1.90442   0.00000   0.00000  -0.00000  -0.00000   1.90442
   A45        1.85062  -0.00000   0.00000  -0.00001  -0.00001   1.85062
   A46        1.91620   0.00000   0.00000   0.00000   0.00000   1.91620
   A47        1.99552   0.00000   0.00000   0.00001   0.00001   1.99552
   A48        1.95546  -0.00000   0.00000   0.00000   0.00000   1.95546
   A49        2.44669   0.00000   0.00000   0.00000   0.00000   2.44669
   A50        1.83016   0.00000   0.00000   0.00000   0.00000   1.83016
   A51        1.92532  -0.00000   0.00000  -0.00000  -0.00000   1.92532
   A52        1.89530   0.00000   0.00000   0.00001   0.00001   1.89530
   A53        1.89947   0.00000   0.00000   0.00000   0.00000   1.89947
   A54        1.93645  -0.00000   0.00000  -0.00000  -0.00000   1.93644
   A55        1.97197  -0.00000   0.00000  -0.00000  -0.00000   1.97197
   A56        2.03455   0.00000   0.00000   0.00000   0.00000   2.03455
   A57        2.01642   0.00000   0.00000   0.00000   0.00000   2.01642
   A58        1.93923   0.00000   0.00000   0.00000   0.00000   1.93923
   A59        2.03937   0.00000   0.00000   0.00000   0.00000   2.03937
   A60        1.98603   0.00000   0.00000   0.00000   0.00000   1.98603
   A61        1.92108  -0.00000   0.00000  -0.00001  -0.00001   1.92107
   A62        2.02348  -0.00000   0.00000  -0.00000  -0.00000   2.02348
   A63        2.00533  -0.00000   0.00000  -0.00000  -0.00000   2.00533
   A64        2.10947   0.00000   0.00000   0.00000   0.00000   2.10947
[...]
     50          8           0        0.970190   -1.559760    3.865548
     51          1           0        0.013399   -1.431943    3.997598
 ---------------------------------------------------------------------
 Rotational constants (GHZ):           0.0870925           0.0387451           0.0365575

 **********************************************************************

            Population analysis using the SCF Density.

 **********************************************************************

 Orbital symmetries:
       Occupied  (A) (A) (A) (A) (A) (A) (A) (A) (A) (A) (A) (A)
                 (A) (A) (A) (A) (A) (A) (A) (A) (A) (A) (A) (A)
                 (A) (A) (A) (A) (A) (A) (A) (A) (A) (A) (A) (A)
                 (A) (A) (A) (A) (A) (A) (A) (A) (A) (A) (A) (A)
                 (A) (A) (A) (A) (A) (A) (A) (A) (A) (A) (A) (A)
                 (A) (A) (A) (A) (A) (A) (A) (A) (A) (A) (A) (A)
                 (A) (A) (A) (A) (A) (A) (A) (A) (A) (A) (A) (A)
                 (A) (A) (A) (A) (A) (A) (A) (A) (A) (A) (A) (A)
                 (A) (A) (A) (A) (A) (A) (A) (A) (A) (A) (A) (A)
                 (A) (A) (A) (A) (A) (A) (A) (A) (A) (A) (A) (A)
                 (A) (A) (A) (A) (A) (A) (A) (A) (A) (A) (A) (A)
                 (A) (A) (A) (A) (A) (A) (A) (A) (A) (A) (A) (A)
                 (A) (A) (A) (A) (A) (A) (A) (A) (A) (A) (A) (A)
                 (A) (A) (A) (A) (A)
       Virtual   (A) (A) (A) (A) (A) (A) (A) (A) (A) (A) (A) (A)
                 (A) (A) (A) (A) (A) (A) (A) (A) (A) (A) (A) (A)
                 (A) (A) (A) (A) (A) (A) (A) (A) (A) (A) (A) (A)
                 (A) (A) (A) (A) (A) (A) (A) (A) (A) (A) (A) (A)
                 (A) (A) (A) (A) (A) (A) (A) (A) (A) (A) (A) (A)
                 (A) (A) (A) (A) (A) (A) (A) (A) (A) (A) (A) (A)
                 (A) (A) (A) (A) (A) (A) (A) (A) (A) (A) (A) (A)
                 (A) (A) (A) (A) (A) (A) (A) (A) (A) (A) (A) (A)
                 (A) (A) (A) (A) (A) (A) (A) (A) (A) (A) (A) (A)
                 (A) (A) (A) (A) (A) (A) (A) (A) (A) (A) (A) (A)
                 (A) (A) (A) (A) (A) (A) (A) (A) (A) (A) (A) (A)
                 (A) (A) (A) (A) (A) (A) (A) (A) (A) (A) (A) (A)
                 (A) (A) (A) (A) (A) (A) (A) (A) (A) (A) (A) (A)
                 (A) (A) (A) (A) (A) (A) (A) (A) (A) (A) (A) (A)
                 (A) (A) (A) (A) (A) (A) (A) (A) (A) (A) (A) (A)
                 (A) (A) (A) (A) (A) (A) (A) (A) (A) (A) (A) (A)
                 (A) (A) (A) (A) (A) (A) (A) (A) (A) (A) (A) (A)
                 (A) (A) (A) (A) (A) (A) (A) (A) (A) (A) (A) (A)
                 (A) (A) (A) (A) (A) (A) (A) (A) (A) (A) (A) (A)
                 (A) (A) (A) (A) (A) (A) (A) (A) (A) (A) (A) (A)
                 (A) (A) (A) (A) (A) (A) (A) (A) (A) (A) (A) (A)
                 (A) (A) (A) (A) (A) (A) (A) (A) (A) (A) (A) (A)
                 (A) (A) (A) (A) (A) (A) (A) (A) (A) (A) (A) (A)
                 (A) (A) (A) (A) (A) (A) (A) (A) (A) (A) (A) (A)
                 (A) (A) (A) (A) (A) (A) (A) (A) (A) (A) (A) (A)
                 (A) (A) (A) (A) (A) (A) (A) (A) (A) (A) (A) (A)
                 (A) (A) (A) (A) (A) (A) (A) (A) (A) (A) (A) (A)
                 (A) (A) (A) (A) (A) (A) (A) (A) (A) (A) (A) (A)
                 (A) (A) (A) (A) (A) (A) (A) (A) (A) (A) (A) (A)
                 (A) (A) (A) (A) (A) (A) (A) (A) (A) (A) (A) (A)
                 (A) (A) (A) (A) (A) (A) (A) (A) (A) (A) (A) (A)
                 (A) (A) (A) (A) (A) (A) (A) (A) (A) (A) (A) (A)
                 (A) (A) (A) (A) (A) (A) (A) (A) (A) (A) (A) (A)
                 (A) (A) (A) (A) (A) (A) (A) (A) (A) (A) (A) (A)
                 (A) (A) (A) (A) (A) (A) (A) (A) (A) (A) (A) (A)
                 (A) (A) (A) (A) (A) (A) (A) (A) (A) (A) (A) (A)
                 (A) (A) (A) (A) (A) (A) (A)
 The electronic state is 1-A.
 Alpha  occ. eigenvalues --  -66.22066 -66.21853 -66.21370 -66.20203 -19.17126
 Alpha  occ. eigenvalues --  -19.17043 -19.16398 -19.16362 -19.16151 -19.16018
 Alpha  occ. eigenvalues --  -19.15856 -19.15822 -19.15734 -19.15725 -19.15547
 Alpha  occ. eigenvalues --  -19.15264 -19.15157 -19.14692 -19.14584 -19.14311
 Alpha  occ. eigenvalues --  -19.14284 -19.14274 -19.14244 -19.14103 -19.13391
 Alpha  occ. eigenvalues --  -19.13198 -19.12577 -19.12131 -19.11637  -5.36084
 Alpha  occ. eigenvalues --   -5.36028  -5.35564  -5.34411  -3.72058  -3.72047
 Alpha  occ. eigenvalues --   -3.72024  -3.71993  -3.71987  -3.71920  -3.71627
 Alpha  occ. eigenvalues --   -3.71480  -3.71406  -3.70406  -3.70359  -3.70287
 Alpha  occ. eigenvalues --   -2.08268  -2.06941  -2.06812  -2.05085  -1.29325
 Alpha  occ. eigenvalues --   -1.28933  -1.28525  -1.27980  -1.27752  -1.27688
 Alpha  occ. eigenvalues --   -1.27180  -1.27153  -1.26742  -1.25729  -1.25477
 Alpha  occ. eigenvalues --   -1.25138  -1.05294  -1.04337  -1.03085  -1.01945
 Alpha  occ. eigenvalues --   -1.01440  -1.01177  -1.00980  -0.99760  -0.99486
 Alpha  occ. eigenvalues --   -0.98775  -0.98551  -0.98347  -0.97940  -0.97434
 Alpha  occ. eigenvalues --   -0.96691  -0.96346  -0.95481  -0.95060  -0.94968
 Alpha  occ. eigenvalues --   -0.93893  -0.93671  -0.92088  -0.91199  -0.89531
 Alpha  occ. eigenvalues --   -0.88443  -0.61678  -0.59600  -0.58809  -0.55897
 Alpha  occ. eigenvalues --   -0.54417  -0.53586  -0.52327  -0.52130  -0.51471
 Alpha  occ. eigenvalues --   -0.51374  -0.51055  -0.51021  -0.50788  -0.50193
 Alpha  occ. eigenvalues --   -0.50125  -0.49103  -0.48875  -0.47756  -0.46762
 Alpha  occ. eigenvalues --   -0.45636  -0.45561  -0.44786  -0.42797  -0.42050
 Alpha  occ. eigenvalues --   -0.41474  -0.41393  -0.40583  -0.40404  -0.40232
 Alpha  occ. eigenvalues --   -0.39693  -0.39552  -0.39201  -0.38964  -0.38431
 Alpha  occ. eigenvalues --   -0.37864  -0.37522  -0.37373  -0.37208  -0.36850
 Alpha  occ. eigenvalues --   -0.36685  -0.36134  -0.35967  -0.35758  -0.35622
 Alpha  occ. eigenvalues --   -0.35419  -0.35224  -0.35118  -0.34959  -0.34909
 Alpha  occ. eigenvalues --   -0.34655  -0.34294  -0.34247  -0.34110  -0.33986
 Alpha  occ. eigenvalues --   -0.33780  -0.33466  -0.33415  -0.33185  -0.33042
 Alpha  occ. eigenvalues --   -0.32863  -0.32581  -0.32525  -0.32236  -0.31971
 Alpha  occ. eigenvalues --   -0.31792  -0.31653  -0.31475  -0.31143  -0.31003
 Alpha  occ. eigenvalues --   -0.30807  -0.30751  -0.30200  -0.29527  -0.29139
 Alpha  occ. eigenvalues --   -0.28617
 Alpha virt. eigenvalues --   -0.05223  -0.04768  -0.04429  -0.03413  -0.02867
 Alpha virt. eigenvalues --   -0.02690  -0.01898  -0.01592  -0.01328  -0.01099
 Alpha virt. eigenvalues --   -0.00660  -0.00594  -0.00356   0.00039   0.00522
 Alpha virt. eigenvalues --    0.00665   0.00922   0.01399   0.01521   0.01808
 Alpha virt. eigenvalues --    0.02333   0.02479   0.02784   0.02956   0.03214
 Alpha virt. eigenvalues --    0.03786   0.04084   0.04203   0.05004   0.05429
 Alpha virt. eigenvalues --    0.05769   0.05836   0.06228   0.06564   0.07121
 Alpha virt. eigenvalues --    0.08118   0.08293   0.08683   0.09569   0.10250
 Alpha virt. eigenvalues --    0.10505   0.11193   0.11858   0.12464   0.12838
 Alpha virt. eigenvalues --    0.13449   0.13902   0.14589   0.15043   0.15259
 Alpha virt. eigenvalues --    0.15844   0.16269   0.16574   0.16710   0.16942
 Alpha virt. eigenvalues --    0.17558   0.18010   0.18150   0.18406   0.18718
 Alpha virt. eigenvalues --    0.19160   0.19433   0.19692   0.20262   0.20814
 Alpha virt. eigenvalues --    0.20945   0.21261   0.21512   0.22202   0.22274
 Alpha virt. eigenvalues --    0.22543   0.22770   0.22898   0.23330   0.24134
 Alpha virt. eigenvalues --    0.24229   0.24451   0.24756   0.25062   0.25656
 Alpha virt. eigenvalues --    0.25953   0.26652   0.26804   0.27467   0.27603
 Alpha virt. eigenvalues --    0.28297   0.28681   0.29348   0.30002   0.30089
 Alpha virt. eigenvalues --    0.30526   0.31144   0.31289   0.32024   0.32633
 Alpha virt. eigenvalues --    0.33334   0.33731   0.34115   0.34597   0.35188
 Alpha virt. eigenvalues --    0.36041   0.36644   0.36900   0.37547   0.37929
 Alpha virt. eigenvalues --    0.38404   0.39521   0.40860   0.41230   0.41815
 Alpha virt. eigenvalues --    0.42241   0.44560   0.45069   0.46522   0.46895
 Alpha virt. eigenvalues --    0.49273   0.49949   0.52046   0.55471   0.56398
 Alpha virt. eigenvalues --    0.58090   0.59583   0.60462   0.64636   0.66548
 Alpha virt. eigenvalues --    0.67353   0.76572   0.76836   0.78719   0.79656
 Alpha virt. eigenvalues --    0.80205   0.80985   0.81172   0.82064   0.83595
 Alpha virt. eigenvalues --    0.83710   0.84013   0.84824   0.85904   0.86735
 Alpha virt. eigenvalues --    0.86876   0.87904   0.88934   0.89601   0.90366
 Alpha virt. eigenvalues --    0.90709   0.91747   0.92160   0.92400   0.93200
 Alpha virt. eigenvalues --    0.93294   0.93965   0.94425   0.94900   0.95574
 Alpha virt. eigenvalues --    0.96317   0.96529   0.96767   0.97415   0.97515
 Alpha virt. eigenvalues --    0.97661   0.98143   0.98370   0.98632   0.99240
 Alpha virt. eigenvalues --    0.99376   1.00057   1.00642   1.00926   1.01222
 Alpha virt. eigenvalues --    1.02380   1.02909   1.03248   1.03372   1.03903
 Alpha virt. eigenvalues --    1.04706   1.05555   1.05865   1.06427   1.06456
 Alpha virt. eigenvalues --    1.07341   1.07530   1.08148   1.08723   1.08975
 Alpha virt. eigenvalues --    1.09439   1.09667   1.10353   1.10596   1.11034
 Alpha virt. eigenvalues --    1.11987   1.12678   1.13355   1.13830   1.14333
 Alpha virt. eigenvalues --    1.14791   1.15761   1.16239   1.16649   1.17192
 Alpha virt. eigenvalues --    1.17572   1.18167   1.18830   1.19102   1.19257
 Alpha virt. eigenvalues --    1.19584   1.20057   1.20862   1.21118   1.21681
 Alpha virt. eigenvalues --    1.21930   1.22576   1.23025   1.24025   1.24404
 Alpha virt. eigenvalues --    1.25681   1.26539   1.26852   1.27602   1.27903
 Alpha virt. eigenvalues --    1.29061   1.29629   1.30848   1.31232   1.32223
 Alpha virt. eigenvalues --    1.33791   1.34281   1.35326   1.36830   1.37856
 Alpha virt. eigenvalues --    1.42457   1.43357   1.44708   1.45442   1.47139
 Alpha virt. eigenvalues --    1.47806   1.49136   1.50266   1.50869   1.51103
 Alpha virt. eigenvalues --    1.51856   1.52460   1.53681   1.53959   1.54211
 Alpha virt. eigenvalues --    1.55154   1.55491   1.55919   1.56079   1.56639
 Alpha virt. eigenvalues --    1.56911   1.57486   1.57755   1.58305   1.58473
 Alpha virt. eigenvalues --    1.58751   1.58977   1.59397   1.60158   1.60359
 Alpha virt. eigenvalues --    1.61069   1.62132   1.62215   1.62482   1.62804
 Alpha virt. eigenvalues --    1.63308   1.63786   1.63940   1.64487   1.64671
 Alpha virt. eigenvalues --    1.65626   1.65791   1.66144   1.66798   1.66974
 Alpha virt. eigenvalues --    1.67507   1.68063   1.68724   1.70466   1.70763
 Alpha virt. eigenvalues --    1.71261   1.71674   1.71948   1.72547   1.72738
 Alpha virt. eigenvalues --    1.73394   1.73449   1.74136   1.74876   1.75319
 Alpha virt. eigenvalues --    1.75600   1.76395   1.76994   1.77538   1.77774
 Alpha virt. eigenvalues --    1.78193   1.78361   1.78611   1.78904   1.79366
 Alpha virt. eigenvalues --    1.79600   1.80494   1.80811   1.81156   1.81519
 Alpha virt. eigenvalues --    1.81630   1.82095   1.82317   1.82857   1.83054
 Alpha virt. eigenvalues --    1.83514   1.83764   1.84376   1.85207   1.85452
 Alpha virt. eigenvalues --    1.85714   1.86163   1.86383   1.86649   1.86913
 Alpha virt. eigenvalues --    1.87033   1.87506   1.87904   1.88561   1.89201
 Alpha virt. eigenvalues --    1.90136   1.90878   1.91000   1.91725   1.92678
 Alpha virt. eigenvalues --    1.92878   1.93247   1.94534   1.95139   1.97160
 Alpha virt. eigenvalues --    1.97497   1.98294   1.99433   2.01198   2.01546
 Alpha virt. eigenvalues --    2.04359   2.05600   2.08981   2.09240   2.11723
 Alpha virt. eigenvalues --    2.15027   2.18997   2.31638   2.33746   2.33996
 Alpha virt. eigenvalues --    2.34462   2.35021   2.35147   2.36286   2.36550
 Alpha virt. eigenvalues --    2.36990   2.37969   2.38010   2.39631   2.39715
 Alpha virt. eigenvalues --    2.39900   2.40670   2.41070   2.42455   2.44574
 Alpha virt. eigenvalues --    2.45051   2.46506   2.47959   2.49639   2.52237
 Alpha virt. eigenvalues --    2.55831   2.56283   2.58376   2.59159   2.59728
 Alpha virt. eigenvalues --    2.60125   2.60772   2.61237   2.61629   2.61978
 Alpha virt. eigenvalues --    2.62064   2.62311   2.62508   2.62783   2.63004
 Alpha virt. eigenvalues --    2.63064   2.63134   2.63529   2.63774   2.64156
 Alpha virt. eigenvalues --    2.64552   2.64654   2.65536   2.65622   2.65726
 Alpha virt. eigenvalues --    2.65959   2.66476   2.67537   2.68561   2.69271
 Alpha virt. eigenvalues --    2.69692   2.70619   2.70929   2.73053   2.74043
 Alpha virt. eigenvalues --    2.74546   2.74732   2.76622   2.76765   2.77486
 Alpha virt. eigenvalues --    2.77577   2.78046   2.81915   2.82652   2.84793
 Alpha virt. eigenvalues --    2.86756   2.93407   3.40456   3.40712   3.40929
 Alpha virt. eigenvalues --    3.41418   3.41985   3.43365   3.43871   3.45078
 Alpha virt. eigenvalues --    3.46064   3.46563   3.47237   3.47742   3.49159
 Alpha virt. eigenvalues --    3.49836   3.52105   3.54299   3.54937   3.55392
 Alpha virt. eigenvalues --    4.72911   6.23830   6.64566   7.77900
          Condensed to atoms (all electrons):
 Mulliken charges:
               1
     1  Si   1.295370
     2  O   -0.649243
     3  O   -0.649862
     4  O   -0.648934
     5  O   -0.755187
     6  Zr   1.611916
     7  Si   1.123924
     8  Si   1.162782
     9  Si   1.135889
    10  O   -0.820582
    11  Zr   1.494436
    12  O   -0.863963
    13  Zr   1.591706
    14  O   -0.827890
    15  Zr   1.550491
    16  O   -0.626902
    17  O   -0.574108
    18  O   -0.666387
    19  O   -0.626430
    20  O   -0.610544
    21  O   -0.644244
    22  O   -0.578224
    23  O   -0.653106
    24  O   -0.618527
    25  H    0.355007
    26  H    0.334204
    27  H    0.367289
    28  H    0.370347
    29  H    0.365504
    30  H    0.337894
    31  H    0.336664
    32  H    0.381346
    33  H    0.344276
    34  O   -0.695206
    35  H    0.332501
    36  O   -0.706900
    37  H    0.365692
    38  O   -0.749254
    39  H    0.331333
    40  O   -0.763603
    41  H    0.371873
    42  O   -0.694123
    43  H    0.334172
    44  O   -0.699148
    45  H    0.335367
    46  O   -0.762536
    47  H    0.380823
    48  O   -0.742459
    49  H    0.340349
    50  O   -0.691621
    51  H    0.367830
 Sum of Mulliken charges =  -0.00000
 Mulliken charges with hydrogens summed into heavy atoms:
               1
     1  Si   1.295370
     2  O   -0.649243
     3  O   -0.649862
     4  O   -0.648934
     5  O   -0.755187
     6  Zr   1.611916
     7  Si   1.123924
     8  Si   1.162782
     9  Si   1.135889
    10  O   -0.820582
    11  Zr   1.494436
    12  O   -0.863963
    13  Zr   1.591706
    14  O   -0.827890
    15  Zr   1.550491
    16  O   -0.289009
    17  O   -0.237444
    18  O   -0.300883
    19  O   -0.282154
    20  O   -0.240197
    21  O   -0.262899
    22  O   -0.244020
    23  O   -0.298100
    24  O   -0.251237
    34  O   -0.362705
    36  O   -0.341208
    38  O   -0.417920
    40  O   -0.391731
    42  O   -0.359951
    44  O   -0.363781
    46  O   -0.381713
    48  O   -0.402109
    50  O   -0.323791
 Electronic spatial extent (au):  <R**2>=          25052.7521
 Charge=              0.0000 electrons
 Dipole moment (field-independent basis, Debye):
    X=              2.1261    Y=              4.4715    Z=              0.8779  Tot=              5.0284
 Quadrupole moment (field-independent basis, Debye-Ang):
   XX=           -294.7995   YY=           -258.1963   ZZ=           -261.4098
   XY=              3.2610   XZ=              7.4854   YZ=             -8.2250
 Traceless Quadrupole moment (field-independent basis, Debye-Ang):
   XX=            -23.3309   YY=             13.2722   ZZ=             10.0587
   XY=              3.2610   XZ=              7.4854   YZ=             -8.2250
 Octapole moment (field-independent basis, Debye-Ang**2):
  XXX=            325.0403  YYY=            102.5492  ZZZ=            -43.3448  XYY=            157.5908
  XXY=             64.3848  XXZ=            -28.4983  XZZ=            123.7753  YZZ=             10.1865
  YYZ=            -18.1577  XYZ=             58.8327
 Hexadecapole moment (field-independent basis, Debye-Ang**3):
 XXXX=         -22686.7005 YYYY=          -5701.9252 ZZZZ=          -4890.1631 XXXY=            130.8324
 XXXZ=            -10.4123 YYYX=             38.3421 YYYZ=             23.7717 ZZZX=             55.1771
 ZZZY=            -70.1602 XXYY=          -4661.6255 XXZZ=          -3808.8818 YYZZ=          -1734.5966
 XXYZ=           -512.2526 YYXZ=           -166.4518 ZZXY=            180.6039
 N-N= 5.668225776044D+03 E-N=-1.893709198491D+04  KE= 3.091319037468D+03
 1\1\GINC-GRA702\FOpt\RB3LYP\Gen\H18O25Si4Zr4\SARASHS\24-Jun-2020\0\\#n
  B3LYP/GEN PSEUDO=READ Opt(modredundant)\\Title\\0,1\Si,-2.7635815303,
 0.5036860346,-0.8024056385\O,-2.6440592885,-0.062757458,0.7315225372\O
 ,-3.7134635778,1.8572720963,-0.789984023\O,-3.4698666906,-0.6565547937
 ,-1.719121677\O,-1.2670550421,0.8736436541,-1.3091276342\Zr,0.61537407
 04,0.5659392128,-0.671599763\Si,-2.9517404592,-0.4005545101,2.29444978
 33\Si,-5.2932753334,2.1132136709,-0.3909628125\Si,-4.6519851135,-1.797
 3077823,-1.4654859403\O,1.4139771379,-1.0417320103,-1.3814439355\Zr,3.
 0681715425,-2.2277055307,-1.3733714169\O,0.7532226328,0.2431132665,1.3
 217037923\Zr,2.0027620278,-0.8538873108,2.3816056016\O,1.8385882966,2.
 0695381916,-1.022063157\Zr,3.6707052452,2.6849075267,-0.5630515137\O,-
 6.302611852,1.767285918,-1.6572143369\O,-5.4468178824,3.6803324131,0.0
 596666781\O,-5.7671798765,1.0855531712,0.8163733003\O,-3.5059656821,-1
 .9728298903,2.2611030271\O,-4.0398075049,0.6021424746,2.9817354107\O,-
 1.5126173959,-0.3116794486,3.1003941439\O,-4.9739817924,-2.5214802917,
 -2.9001627731\O,-6.0408616452,-1.0205060565,-0.9734858103\O,-4.2199394
 027,-2.8870501426,-0.3401050112\H,-6.3889065211,-0.3672329864,-1.60274
 91528\H,-4.2124223685,-2.8682871323,-3.37738536\H,-3.9294645763,-2.602
 5429043,0.546208852\H,-4.7809571163,0.8456367666,2.3904980317\H,-6.044
 0399386,0.2178183142,0.4531524729\H,-6.2407799712,2.3430984829,-2.4275
 16968\H,-4.6284441933,4.1223150504,0.3106428128\H,-0.8360483477,0.1049
 394977,2.5330189225\H,-4.0563558193,-2.2560489741,2.999738795\O,3.3407
 214626,-2.6876530596,-3.2671037689\H,3.9764362117,-2.4027735075,-3.930
 8377314\O,4.6002755877,-1.1007488312,-0.9666490002\H,4.7757131797,-0.3
 383772712,-0.3789193884\O,2.9683658664,-4.1000168308,-0.5919274556\H,3
 .072574593,-4.9098826551,-1.103311094\O,4.4325271891,1.2282333206,0.55
 64977904\H,4.318521383,1.0187760752,1.5075138236\O,4.7511906599,2.8671
 076841,-2.1824933697\H,5.1391735647,3.4788763806,-2.8125670251\O,3.533
 3330555,4.3431796305,0.4504806648\H,3.0452682196,5.0735257347,0.835404
 013\O,2.6806442406,-2.2447362104,1.1135898314\H,2.7240219389,-3.220557
 7705,1.059289417\O,3.5215749223,0.2963260391,3.0022354262\H,3.81532898
 78,0.5804144272,3.8746936986\O,0.9701678757,-1.5597848027,3.8655382359
 \H,0.0133790306,-1.4319568723,3.9975886952\\Version=ES64L-G16RevB.01\S
 tate=1-A\HF=-3237.5675403\RMSD=3.590e-09\RMSF=1.613e-06\Dipole=0.83647
 36,1.7592072,0.3453981\Quadrupole=-17.345911,9.8675003,7.4784107,2.424
 7509,5.5651302,-6.115121\PG=C01 [X(H18O25Si4Zr4)]\\@


 "WHERE SHALL I START, PLEASE YOUR MAJESTY?" HE ASKED.
 "BEGIN AT THE BEGINNING," THE KING SAID GRAVELY,
 "AND GO ON TILL YOU COME TO THE END: THEN STOP." 

                                      -- LEWIS CARROLL
 Job cpu time:       0 days  2 hours 35 minutes 17.3 seconds.
 Elapsed time:       0 days  0 hours  9 minutes 44.0 seconds.
 File lengths (MBytes):  RWF=    218 Int=      0 D2E=      0 Chk=     28 Scr=      1
 Normal termination of Gaussian 16 at Wed Jun 24 14:20:08 2020.
