 Entering Gaussian System, Link 0=g16
 Initial command:
 /opt/software/gaussian/g16.b01/l1.exe "/localscratch/sarashs.33454226.0/Gau-6261.inp" -scrdir="/localscratch/sarashs.33454226.0/"
 Entering Link 1 = /opt/software/gaussian/g16.b01/l1.exe PID=      6262.
  
 Copyright (c) 1988-2017, Gaussian, Inc.  All Rights Reserved.
  
 This is part of the Gaussian(R) 16 program.  It is based on
 the Gaussian(R) 09 system (copyright 2009, Gaussian, Inc.),
 the Gaussian(R) 03 system (copyright 2003, Gaussian, Inc.),
 the Gaussian(R) 98 system (copyright 1998, Gaussian, Inc.),
 the Gaussian(R) 94 system (copyright 1995, Gaussian, Inc.),
 the Gaussian 92(TM) system (copyright 1992, Gaussian, Inc.),
 the Gaussian 90(TM) system (copyright 1990, Gaussian, Inc.),
 the Gaussian 88(TM) system (copyright 1988, Gaussian, Inc.),
 the Gaussian 86(TM) system (copyright 1986, Carnegie Mellon
 University), and the Gaussian 82(TM) system (copyright 1983,
 Carnegie Mellon University). Gaussian is a federally registered
 trademark of Gaussian, Inc.
  
 This software contains proprietary and confidential information,
 including trade secrets, belonging to Gaussian, Inc.
  
 This software is provided under written license and may be
 used, copied, transmitted, or stored only in accord with that
 written license.
  
 The following legend is applicable only to US Government
 contracts under FAR:
  
                    RESTRICTED RIGHTS LEGEND
  
 Use, reproduction and disclosure by the US Government is
 subject to restrictions as set forth in subparagraphs (a)
 and (c) of the Commercial Computer Software - Restricted
 Rights clause in FAR 52.227-19.
  
 Gaussian, Inc.
 340 Quinnipiac St., Bldg. 40, Wallingford CT 06492
  
  
 ---------------------------------------------------------------
 Warning -- This program may not be used in any manner that
 competes with the business of Gaussian, Inc. or will provide
 assistance to any competitor of Gaussian, Inc.  The licensee
 of this program is prohibited from giving any competitor of
 Gaussian, Inc. access to this program.  By using this program,
 the user acknowledges that Gaussian, Inc. is engaged in the
 business of creating and licensing software in the field of
 computational chemistry and represents and warrants to the
 licensee that it is not a competitor of Gaussian, Inc. and that
 it will not use this program in any manner prohibited above.
 ---------------------------------------------------------------
  

 Cite this work as:
 Gaussian 16, Revision B.01,
 M. J. Frisch, G. W. Trucks, H. B. Schlegel, G. E. Scuseria, 
 M. A. Robb, J. R. Cheeseman, G. Scalmani, V. Barone, 
 G. A. Petersson, H. Nakatsuji, X. Li, M. Caricato, A. V. Marenich, 
 J. Bloino, B. G. Janesko, R. Gomperts, B. Mennucci, H. P. Hratchian, 
 J. V. Ortiz, A. F. Izmaylov, J. L. Sonnenberg, D. Williams-Young, 
 F. Ding, F. Lipparini, F. Egidi, J. Goings, B. Peng, A. Petrone, 
 T. Henderson, D. Ranasinghe, V. G. Zakrzewski, J. Gao, N. Rega, 
 G. Zheng, W. Liang, M. Hada, M. Ehara, K. Toyota, R. Fukuda, 
 J. Hasegawa, M. Ishida, T. Nakajima, Y. Honda, O. Kitao, H. Nakai, 
 T. Vreven, K. Throssell, J. A. Montgomery, Jr., J. E. Peralta, 
 F. Ogliaro, M. J. Bearpark, J. J. Heyd, E. N. Brothers, K. N. Kudin, 
 V. N. Staroverov, T. A. Keith, R. Kobayashi, J. Normand, 
 K. Raghavachari, A. P. Rendell, J. C. Burant, S. S. Iyengar, 
 J. Tomasi, M. Cossi, J. M. Millam, M. Klene, C. Adamo, R. Cammi, 
 J. W. Ochterski, R. L. Martin, K. Morokuma, O. Farkas, 
 J. B. Foresman, and D. J. Fox, Gaussian, Inc., Wallingford CT, 2016.
 
 ******************************************
 Gaussian 16:  ES64L-G16RevB.01 20-Dec-2017
                24-Jun-2020 
 ******************************************
 %NProcShared=16
 Will use up to   16 processors via shared memory.
 ------------------------------------------
 #n B3LYP/GEN PSEUDO=READ Opt(modredundant)
 ------------------------------------------
 1/18=120,19=15,26=3,38=1/1,3;
 2/9=110,12=2,17=6,18=5,40=1/2;
 3/5=7,11=2,16=1,17=8,25=1,30=1,71=1,74=-5/1,2,3;
 4//1;
 5/5=2,38=5/2;
 6/7=2,8=2,9=2,10=2,28=1/1;
 7//1,2,3,16;
 1/18=20,19=15,26=3/3(2);
 2/9=110/2;
 99//99;
 2/9=110/2;
 3/5=7,6=1,11=2,16=1,17=8,25=1,30=1,71=1,74=-5,82=7/1,2,3;
 4/5=5,16=3,69=1/1;
 5/5=2,38=5/2;
 7//1,2,3,16;
 1/18=20,19=15,26=3/3(-5);
 2/9=110/2;
 6/7=2,8=2,9=2,10=2,19=2,28=1/1;
 99/9=1/99;
 -----
 Title
 -----
 Symbolic Z-matrix:
 Charge =  0 Multiplicity = 1
 Si                   -2.76356   0.50373  -0.80236 
 O                    -2.64408  -0.06281   0.73154 
 O                    -3.71347   1.8573   -0.78988 
 O                    -3.46982  -0.65647  -1.71915 
 O                    -1.26704   0.87374  -1.30905 
 Zr                    0.70784   0.70673  -1.65055 
 Si                   -2.95182  -0.40071   2.29443 
 Si                   -5.29329   2.11319  -0.39088 
 Si                   -4.65193  -1.79724  -1.46558 
 O                     1.17047  -0.80153  -2.76294 
 Zr                    2.69954  -1.84117  -3.61385 
 O                     1.78961   0.32906   0.01788 
 Zr                    3.45423  -0.6925    0.28912 
 O                     1.52874   2.32059  -2.42608 
 Zr                    3.32019   3.07453  -2.83628 
 O                    -6.30259   1.76732  -1.65717 
 O                    -5.44687   3.68028   0.05984 
 O                    -5.76721   1.08545   0.81639 
 O                    -3.50601  -1.97299   2.26095 
 O                    -4.03994   0.60192   2.98173 
 O                    -1.51274  -0.31185   3.10045 
 O                    -4.9739   -2.52135  -2.90029 
 O                    -6.04082  -1.02047  -0.97357 
 O                    -4.21989  -2.88703  -0.34024 
 H                    -6.38886  -0.36717  -1.60281 
 H                    -4.21233  -2.86813  -3.37752 
 H                    -3.92943  -2.60256   0.54609 
 H                    -4.78107   0.84544   2.39047 
 H                    -6.04405   0.21773   0.45311 
 H                    -6.24075   2.34318  -2.42744 
 H                    -4.62851   4.12226   0.31086 
 H                    -0.83615   0.10482   2.53314 
 H                    -4.05643  -2.25627   2.99954 
 O                     2.07229  -2.21118  -5.44189 
 H                     2.30103  -1.85044  -6.30408 
 O                     4.17213  -0.60177  -3.89353 
 H                     4.55867   0.15232  -3.4043 
 O                     3.092    -3.74073  -3.0107 
 H                     2.99029  -4.52077  -3.56698 
 O                     4.60549   1.6511   -2.30945 
 H                     4.96681   1.40037  -1.43317 
 O                     3.49482   3.40367  -4.75576 
 H                     3.50215   4.06754  -5.4493 
 O                     3.57945   4.67943  -1.76248 
 H                     3.28857   5.35175  -1.14349 
 O                     3.53418  -1.97616  -1.24309 
 H                     3.60461  -2.94227  -1.37995 
 O                     5.01474   0.56162   0.20561 
 H                     5.66823   0.83989   0.85654 
 O                     3.28886  -1.53439   2.02994 
 H                     2.50218  -1.49349   2.60325 
 
 The following ModRedundant input section has been read:
 A       1       5       6 F                                                   
 

 GradGradGradGradGradGradGradGradGradGradGradGradGradGradGradGradGradGrad
 Berny optimization.
 Initialization pass.
                           ----------------------------
                           !    Initial Parameters    !
                           ! (Angstroms and Degrees)  !
 --------------------------                            --------------------------
 ! Name  Definition              Value          Derivative Info.                !
 --------------------------------------------------------------------------------
 ! R1    R(1,2)                  1.6395         estimate D2E/DX2                !
 ! R2    R(1,3)                  1.6537         estimate D2E/DX2                !
 ! R3    R(1,4)                  1.6387         estimate D2E/DX2                !
 ! R4    R(1,5)                  1.6227         estimate D2E/DX2                !
 ! R5    R(2,7)                  1.6283         estimate D2E/DX2                !
 ! R6    R(3,8)                  1.6494         estimate D2E/DX2                !
 ! R7    R(4,9)                  1.6622         estimate D2E/DX2                !
 ! R8    R(5,6)                  2.0111         estimate D2E/DX2                !
 ! R9    R(6,10)                 1.9304         estimate D2E/DX2                !
 ! R10   R(6,12)                 2.024          estimate D2E/DX2                !
 ! R11   R(6,14)                 1.9697         estimate D2E/DX2                !
 ! R12   R(7,19)                 1.6674         estimate D2E/DX2                !
 ! R13   R(7,20)                 1.6315         estimate D2E/DX2                !
 ! R14   R(7,21)                 1.6518         estimate D2E/DX2                !
 ! R15   R(8,16)                 1.6558         estimate D2E/DX2                !
 ! R16   R(8,17)                 1.6378         estimate D2E/DX2                !
 ! R17   R(8,18)                 1.6548         estimate D2E/DX2                !
 ! R18   R(9,22)                 1.639          estimate D2E/DX2                !
 ! R19   R(9,23)                 1.6657         estimate D2E/DX2                !
 ! R20   R(9,24)                 1.625          estimate D2E/DX2                !
 ! R21   R(10,11)                2.0354         estimate D2E/DX2                !
 ! R22   R(11,34)                1.9678         estimate D2E/DX2                !
 ! R23   R(11,36)                1.945          estimate D2E/DX2                !
 ! R24   R(11,38)                2.0313         estimate D2E/DX2                !
 ! R25   R(12,13)                1.9718         estimate D2E/DX2                !
 ! R26   R(13,46)                2.0005         estimate D2E/DX2                !
 ! R27   R(13,48)                2.0037         estimate D2E/DX2                !
 ! R28   R(13,50)                1.9408         estimate D2E/DX2                !
 ! R29   R(14,15)                1.9864         estimate D2E/DX2                !
 ! R30   R(15,40)                1.9889         estimate D2E/DX2                !
 ! R31   R(15,42)                1.9553         estimate D2E/DX2                !
 ! R32   R(15,44)                1.9483         estimate D2E/DX2                !
 ! R33   R(16,30)                0.9637         estimate D2E/DX2                !
 ! R34   R(17,31)                0.9634         estimate D2E/DX2                !
 ! R35   R(18,29)                0.9806         estimate D2E/DX2                !
 ! R36   R(19,33)                0.9637         estimate D2E/DX2                !
 ! R37   R(20,28)                0.9789         estimate D2E/DX2                !
 ! R38   R(21,32)                0.9763         estimate D2E/DX2                !
 ! R39   R(22,26)                0.9633         estimate D2E/DX2                !
 ! R40   R(23,25)                0.9715         estimate D2E/DX2                !
 ! R41   R(24,27)                0.9751         estimate D2E/DX2                !
 ! R42   R(34,35)                0.9622         estimate D2E/DX2                !
 ! R43   R(36,37)                0.9785         estimate D2E/DX2                !
 ! R44   R(38,39)                0.9635         estimate D2E/DX2                !
 ! R45   R(40,41)                0.9805         estimate D2E/DX2                !
 ! R46   R(42,43)                0.9601         estimate D2E/DX2                !
 ! R47   R(44,45)                0.959          estimate D2E/DX2                !
 ! R48   R(46,47)                0.9783         estimate D2E/DX2                !
 ! R49   R(48,49)                0.9634         estimate D2E/DX2                !
 ! R50   R(50,51)                0.9743         estimate D2E/DX2                !
 ! A1    A(2,1,3)              108.5202         estimate D2E/DX2                !
 ! A2    A(2,1,4)              108.0696         estimate D2E/DX2                !
 ! A3    A(2,1,5)              107.6808         estimate D2E/DX2                !
 ! A4    A(3,1,4)              109.6434         estimate D2E/DX2                !
 ! A5    A(3,1,5)              110.2104         estimate D2E/DX2                !
 ! A6    A(4,1,5)              112.595          estimate D2E/DX2                !
 ! A7    A(1,2,7)              162.9195         estimate D2E/DX2                !
 ! A8    A(1,3,8)              132.766          estimate D2E/DX2                !
 ! A9    A(1,4,9)              134.9946         estimate D2E/DX2                !
 ! A10   A(1,5,6)              159.9997         Frozen                          !
 ! A11   A(5,6,10)             113.4579         estimate D2E/DX2                !
 ! A12   A(5,6,12)             113.6007         estimate D2E/DX2                !
 ! A13   A(5,6,14)             114.083          estimate D2E/DX2                !
 ! A14   A(10,6,12)            101.6037         estimate D2E/DX2                !
 ! A15   A(10,6,14)            108.2645         estimate D2E/DX2                !
 ! A16   A(12,6,14)            104.7555         estimate D2E/DX2                !
 ! A17   A(2,7,19)             103.84           estimate D2E/DX2                !
 ! A18   A(2,7,20)             113.7575         estimate D2E/DX2                !
 ! A19   A(2,7,21)             107.0096         estimate D2E/DX2                !
 ! A20   A(19,7,20)            111.4863         estimate D2E/DX2                !
 ! A21   A(19,7,21)            110.4922         estimate D2E/DX2                !
 ! A22   A(20,7,21)            110.0253         estimate D2E/DX2                !
 ! A23   A(3,8,16)             111.4953         estimate D2E/DX2                !
 ! A24   A(3,8,17)             107.7477         estimate D2E/DX2                !
 ! A25   A(3,8,18)             110.7593         estimate D2E/DX2                !
 ! A26   A(16,8,17)            110.6802         estimate D2E/DX2                !
 ! A27   A(16,8,18)            104.6923         estimate D2E/DX2                !
 ! A28   A(17,8,18)            111.5071         estimate D2E/DX2                !
 ! A29   A(4,9,22)             108.021          estimate D2E/DX2                !
 ! A30   A(4,9,23)             108.5421         estimate D2E/DX2                !
 ! A31   A(4,9,24)             112.1363         estimate D2E/DX2                !
 ! A32   A(22,9,23)            107.505          estimate D2E/DX2                !
 ! A33   A(22,9,24)            111.2311         estimate D2E/DX2                !
 ! A34   A(23,9,24)            109.2613         estimate D2E/DX2                !
 ! A35   A(6,10,11)            145.0879         estimate D2E/DX2                !
 ! A36   A(10,11,34)           104.1787         estimate D2E/DX2                !
 ! A37   A(10,11,36)           107.6626         estimate D2E/DX2                !
 ! A38   A(10,11,38)           119.9114         estimate D2E/DX2                !
 ! A39   A(34,11,36)           103.1548         estimate D2E/DX2                !
 ! A40   A(34,11,38)            99.2993         estimate D2E/DX2                !
 ! A41   A(36,11,38)           119.4936         estimate D2E/DX2                !
 ! A42   A(6,12,13)            131.3967         estimate D2E/DX2                !
 ! A43   A(12,13,46)           105.1188         estimate D2E/DX2                !
 ! A44   A(12,13,48)           109.1153         estimate D2E/DX2                !
 ! A45   A(12,13,50)           106.033          estimate D2E/DX2                !
 ! A46   A(46,13,48)           109.7901         estimate D2E/DX2                !
 ! A47   A(46,13,50)           114.3348         estimate D2E/DX2                !
 ! A48   A(48,13,50)           112.0397         estimate D2E/DX2                !
 ! A49   A(6,14,15)            140.1851         estimate D2E/DX2                !
 ! A50   A(14,15,40)           104.8606         estimate D2E/DX2                !
 ! A51   A(14,15,42)           110.3129         estimate D2E/DX2                !
 ! A52   A(14,15,44)           108.5926         estimate D2E/DX2                !
 ! A53   A(40,15,42)           108.8317         estimate D2E/DX2                !
 ! A54   A(40,15,44)           110.9501         estimate D2E/DX2                !
 ! A55   A(42,15,44)           112.9854         estimate D2E/DX2                !
 ! A56   A(8,16,30)            116.5711         estimate D2E/DX2                !
 ! A57   A(8,17,31)            115.5324         estimate D2E/DX2                !
 ! A58   A(8,18,29)            111.1097         estimate D2E/DX2                !
 ! A59   A(7,19,33)            116.8474         estimate D2E/DX2                !
 ! A60   A(7,20,28)            113.7913         estimate D2E/DX2                !
 ! A61   A(7,21,32)            110.0697         estimate D2E/DX2                !
 ! A62   A(9,22,26)            115.9371         estimate D2E/DX2                !
 ! A63   A(9,23,25)            114.8968         estimate D2E/DX2                !
 ! A64   A(9,24,27)            120.8639         estimate D2E/DX2                !
 ! A65   A(11,34,35)           133.3271         estimate D2E/DX2                !
 ! A66   A(11,36,37)           135.9151         estimate D2E/DX2                !
 ! A67   A(11,38,39)           124.4219         estimate D2E/DX2                !
 ! A68   A(15,40,41)           131.1414         estimate D2E/DX2                !
 ! A69   A(15,42,43)           145.7113         estimate D2E/DX2                !
 ! A70   A(15,44,45)           153.2296         estimate D2E/DX2                !
 ! A71   A(13,46,47)           138.0491         estimate D2E/DX2                !
 ! A72   A(13,48,49)           132.9121         estimate D2E/DX2                !
 ! A73   A(13,50,51)           125.3388         estimate D2E/DX2                !
 ! D1    D(3,1,2,7)             26.3443         estimate D2E/DX2                !
 ! D2    D(4,1,2,7)            -92.4856         estimate D2E/DX2                !
 ! D3    D(5,1,2,7)            145.6313         estimate D2E/DX2                !
 ! D4    D(2,1,3,8)            -62.7632         estimate D2E/DX2                !
 ! D5    D(4,1,3,8)             55.0697         estimate D2E/DX2                !
 ! D6    D(5,1,3,8)            179.5501         estimate D2E/DX2                !
 ! D7    D(2,1,4,9)             35.4977         estimate D2E/DX2                !
 ! D8    D(3,1,4,9)            -82.6158         estimate D2E/DX2                !
 ! D9    D(5,1,4,9)            154.3011         estimate D2E/DX2                !
 ! D10   D(2,1,5,6)             45.897          estimate D2E/DX2                !
 ! D11   D(3,1,5,6)            164.1009         estimate D2E/DX2                !
 ! D12   D(4,1,5,6)            -73.1334         estimate D2E/DX2                !
 ! D13   D(1,2,7,19)           100.9483         estimate D2E/DX2                !
 ! D14   D(1,2,7,20)           -20.4241         estimate D2E/DX2                !
 ! D15   D(1,2,7,21)          -142.1534         estimate D2E/DX2                !
 ! D16   D(1,3,8,16)           -83.6614         estimate D2E/DX2                !
 ! D17   D(1,3,8,17)           154.7            estimate D2E/DX2                !
 ! D18   D(1,3,8,18)            32.4929         estimate D2E/DX2                !
 ! D19   D(1,4,9,22)           173.7129         estimate D2E/DX2                !
 ! D20   D(1,4,9,23)            57.4339         estimate D2E/DX2                !
 ! D21   D(1,4,9,24)           -63.3679         estimate D2E/DX2                !
 ! D22   D(1,5,6,10)            61.1759         estimate D2E/DX2                !
 ! D23   D(1,5,6,12)           -54.2197         estimate D2E/DX2                !
 ! D24   D(1,5,6,14)          -174.2015         estimate D2E/DX2                !
 ! D25   D(5,6,10,11)         -177.8675         estimate D2E/DX2                !
 ! D26   D(12,6,10,11)         -55.548          estimate D2E/DX2                !
 ! D27   D(14,6,10,11)          54.4246         estimate D2E/DX2                !
 ! D28   D(5,6,12,13)          148.1494         estimate D2E/DX2                !
 ! D29   D(10,6,12,13)          25.9283         estimate D2E/DX2                !
 ! D30   D(14,6,12,13)         -86.7114         estimate D2E/DX2                !
 ! D31   D(5,6,14,15)          169.9962         estimate D2E/DX2                !
 ! D32   D(10,6,14,15)         -62.6544         estimate D2E/DX2                !
 ! D33   D(12,6,14,15)          45.1615         estimate D2E/DX2                !
 ! D34   D(2,7,19,33)         -156.8425         estimate D2E/DX2                !
 ! D35   D(20,7,19,33)         -33.9627         estimate D2E/DX2                !
 ! D36   D(21,7,19,33)          88.7198         estimate D2E/DX2                !
 ! D37   D(2,7,20,28)           39.0047         estimate D2E/DX2                !
 ! D38   D(19,7,20,28)         -78.0052         estimate D2E/DX2                !
 ! D39   D(21,7,20,28)         159.0451         estimate D2E/DX2                !
 ! D40   D(2,7,21,32)           12.2859         estimate D2E/DX2                !
 ! D41   D(19,7,21,32)         124.7052         estimate D2E/DX2                !
 ! D42   D(20,7,21,32)        -111.7631         estimate D2E/DX2                !
 ! D43   D(3,8,16,30)          -66.936          estimate D2E/DX2                !
 ! D44   D(17,8,16,30)          52.9866         estimate D2E/DX2                !
 ! D45   D(18,8,16,30)         173.2574         estimate D2E/DX2                !
 ! D46   D(3,8,17,31)          -19.3558         estimate D2E/DX2                !
 ! D47   D(16,8,17,31)        -141.4996         estimate D2E/DX2                !
 ! D48   D(18,8,17,31)         102.3883         estimate D2E/DX2                !
 ! D49   D(3,8,18,29)          -84.4645         estimate D2E/DX2                !
 ! D50   D(16,8,18,29)          35.8337         estimate D2E/DX2                !
 ! D51   D(17,8,18,29)         155.5519         estimate D2E/DX2                !
 ! D52   D(4,9,22,26)           52.0376         estimate D2E/DX2                !
 ! D53   D(23,9,22,26)         168.99           estimate D2E/DX2                !
 ! D54   D(24,9,22,26)         -71.4318         estimate D2E/DX2                !
 ! D55   D(4,9,23,25)           59.2735         estimate D2E/DX2                !
 ! D56   D(22,9,23,25)         -57.3378         estimate D2E/DX2                !
 ! D57   D(24,9,23,25)        -178.1643         estimate D2E/DX2                !
 ! D58   D(4,9,24,27)           54.0597         estimate D2E/DX2                !
 ! D59   D(22,9,24,27)         175.1468         estimate D2E/DX2                !
 ! D60   D(23,9,24,27)         -66.3256         estimate D2E/DX2                !
 ! D61   D(6,10,11,34)        -136.8772         estimate D2E/DX2                !
 ! D62   D(6,10,11,36)         -27.8029         estimate D2E/DX2                !
 ! D63   D(6,10,11,38)         113.3906         estimate D2E/DX2                !
 ! D64   D(10,11,34,35)        105.9336         estimate D2E/DX2                !
 ! D65   D(36,11,34,35)         -6.4263         estimate D2E/DX2                !
 ! D66   D(38,11,34,35)       -129.8343         estimate D2E/DX2                !
 ! D67   D(10,11,36,37)         37.7967         estimate D2E/DX2                !
 ! D68   D(34,11,36,37)        147.5768         estimate D2E/DX2                !
 ! D69   D(38,11,36,37)       -103.5879         estimate D2E/DX2                !
 ! D70   D(10,11,38,39)        114.254          estimate D2E/DX2                !
 ! D71   D(34,11,38,39)          1.8862         estimate D2E/DX2                !
 ! D72   D(36,11,38,39)       -109.0646         estimate D2E/DX2                !
 ! D73   D(6,12,13,46)         -23.77           estimate D2E/DX2                !
 ! D74   D(6,12,13,48)          93.9283         estimate D2E/DX2                !
 ! D75   D(6,12,13,50)        -145.2201         estimate D2E/DX2                !
 ! D76   D(12,13,46,47)       -123.8184         estimate D2E/DX2                !
 ! D77   D(48,13,46,47)        118.9417         estimate D2E/DX2                !
 ! D78   D(50,13,46,47)         -7.9583         estimate D2E/DX2                !
 ! D79   D(12,13,48,49)        115.0452         estimate D2E/DX2                !
 ! D80   D(46,13,48,49)       -130.2416         estimate D2E/DX2                !
 ! D81   D(50,13,48,49)         -2.0621         estimate D2E/DX2                !
 ! D82   D(12,13,50,51)          3.8975         estimate D2E/DX2                !
 ! D83   D(46,13,50,51)       -111.4305         estimate D2E/DX2                !
 ! D84   D(48,13,50,51)        122.8393         estimate D2E/DX2                !
 ! D85   D(6,14,15,40)           2.4019         estimate D2E/DX2                !
 ! D86   D(6,14,15,42)         119.4236         estimate D2E/DX2                !
 ! D87   D(6,14,15,44)        -116.2545         estimate D2E/DX2                !
 ! D88   D(14,15,40,41)        -80.6701         estimate D2E/DX2                !
 ! D89   D(42,15,40,41)        161.2977         estimate D2E/DX2                !
 ! D90   D(44,15,40,41)         36.3827         estimate D2E/DX2                !
 ! D91   D(14,15,42,43)        104.4322         estimate D2E/DX2                !
 ! D92   D(40,15,42,43)       -141.0368         estimate D2E/DX2                !
 ! D93   D(44,15,42,43)        -17.3247         estimate D2E/DX2                !
 ! D94   D(14,15,44,45)         -4.8196         estimate D2E/DX2                !
 ! D95   D(40,15,44,45)       -119.5619         estimate D2E/DX2                !
 ! D96   D(42,15,44,45)        117.9008         estimate D2E/DX2                !
 --------------------------------------------------------------------------------
 Trust Radius=3.00D-01 FncErr=1.00D-07 GrdErr=1.00D-06 EigMax=2.50D+02 EigMin=1.00D-04
 Number of steps in this run=    229 maximum allowed number of steps=    306.
 GradGradGradGradGradGradGradGradGradGradGradGradGradGradGradGradGradGrad

 Stoichiometry    H18O25Si4Zr4
 Framework group  C1[X(H18O25Si4Zr4)]
 Deg. of freedom   147
 Full point group                 C1      NOp   1
 Largest Abelian subgroup         C1      NOp   1
 Largest concise Abelian subgroup C1      NOp   1
                         Standard orientation:                         
 ---------------------------------------------------------------------
 Center     Atomic      Atomic             Coordinates (Angstroms)
 Number     Number       Type             X           Y           Z
 ---------------------------------------------------------------------
      1         14           0       -2.885501    0.467577   -0.336984
      2          8           0       -3.216964   -0.268511    1.090040
      3          8           0       -3.756180    1.871097   -0.418755
      4          8           0       -3.346041   -0.537647   -1.546447
      5          8           0       -1.295730    0.791540   -0.366849
      6         40           0        0.689468    0.533576   -0.174220
      7         14           0       -3.959036   -0.752967    2.456107
      8         14           0       -5.375296    2.185122   -0.437836
      9         14           0       -4.588852   -1.619312   -1.766585
     10          8           0        1.393907   -0.872242   -1.293920
     11         40           0        3.064473   -1.911393   -1.815771
     12          8           0        1.250345   -0.092759    1.666878
     13         40           0        2.738863   -1.244501    2.255028
     14          8           0        1.746622    2.164759   -0.492869
     15         40           0        3.605210    2.839788   -0.303220
     16          8           0       -6.002498    2.045404   -1.963909
     17          8           0       -5.596759    3.700789    0.142004
     18          8           0       -6.200455    1.065815    0.459166
     19          8           0       -4.533356   -2.272667    2.080634
     20          8           0       -5.161991    0.238334    2.937640
     21          8           0       -2.799503   -0.846435    3.628823
     22          8           0       -4.521851   -2.160975   -3.312063
     23          8           0       -6.033494   -0.811186   -1.581105
     24          8           0       -4.523665   -2.850612   -0.708123
     25          1           0       -6.170682   -0.072142   -2.196629
     26          1           0       -3.669291   -2.503097   -3.602041
     27          1           0       -4.482540   -2.683537    0.251703
     28          1           0       -5.700540    0.592521    2.200971
     29          1           0       -6.393473    0.262592   -0.069160
     30          1           0       -5.709520    2.696080   -2.611628
     31          1           0       -4.866703    4.058409    0.658915
     32          1           0       -1.978282   -0.415924    3.323067
     33          1           0       -5.276824   -2.597691    2.600576
     34          8           0        2.959734   -2.039177   -3.776583
     35          1           0        3.431445   -1.602853   -4.492778
     36          8           0        4.596612   -0.748082   -1.529217
     37          1           0        4.856080   -0.078412   -0.864665
     38          8           0        3.210562   -3.886742   -1.365440
     39          1           0        3.242310   -4.593535   -2.019420
     40          8           0        4.645196    1.286543    0.376163
     41          1           0        4.739525    0.919177    1.280280
     42          8           0        4.318615    3.362928   -2.046954
     43          1           0        4.540785    4.096157   -2.625565
     44          8           0        3.607587    4.298380    0.988473
     45          1           0        3.178003    4.917231    1.581984
     46          8           0        3.200394   -2.356957    0.657758
     47          1           0        3.274350   -3.305063    0.428225
     48          8           0        4.301200   -0.093613    2.754569
     49          1           0        4.756169    0.069059    3.588076
     50          8           0        2.067268   -2.257500    3.768096
     51          1           0        1.153765   -2.227567    4.105495
 ---------------------------------------------------------------------
 Rotational constants (GHZ):           0.0833748           0.0350667           0.0336327
 General basis read from cards:  (5D, 7F)
 ======================================================================================================
                                       Pseudopotential Parameters
 ======================================================================================================
  Center     Atomic      Valence      Angular      Power
  Number     Number     Electrons     Momentum     of R      Exponent        Coefficient   SO-Coeffient
 ======================================================================================================
    1         14
                                   No pseudopotential on this center.
    2          8
                                   No pseudopotential on this center.
    3          8
                                   No pseudopotential on this center.
    4          8
                                   No pseudopotential on this center.
    5          8
                                   No pseudopotential on this center.
    6         40           12
                                      F and up 
                                                     0      645.9321873       -0.04258430    0.00000000
                                                     1      134.7547401      -20.22224090    0.00000000
                                                     2       42.3074619     -101.86951720    0.00000000
                                                     2       12.0003227      -41.61957840    0.00000000
                                                     2        4.1260454       -4.69861600    0.00000000
                                      S - F
                                                     0      117.6251862        2.79105590    0.00000000
                                                     1       22.9646089       41.94894590    0.00000000
                                                     2        4.5225298       67.72718660    0.00000000
                                      P - F
                                                     0       47.1953145        4.99111440    0.00000000
                                                     1       48.0356033       20.71931720    0.00000000
                                                     2       19.4541456      195.58677580    0.00000000
                                                     2        4.0512875       48.28771760    0.00000000
                                      D - F
                                                     0       79.9073983        3.00492260    0.00000000
                                                     1       45.8263798       25.93779890    0.00000000
                                                     2       26.9903522      125.12449340    0.00000000
                                                     2        9.6835718       70.76340220    0.00000000
                                                     2        2.7995666       15.04928220    0.00000000
    7         14
                                   No pseudopotential on this center.
    8         14
                                   No pseudopotential on this center.
    9         14
                                   No pseudopotential on this center.
   10          8
                                   No pseudopotential on this center.
   11         40           12
                                      F and up 
                                                     0      645.9321873       -0.04258430    0.00000000
                                                     1      134.7547401      -20.22224090    0.00000000
                                                     2       42.3074619     -101.86951720    0.00000000
                                                     2       12.0003227      -41.61957840    0.00000000
                                                     2        4.1260454       -4.69861600    0.00000000
                                      S - F
                                                     0      117.6251862        2.79105590    0.00000000
                                                     1       22.9646089       41.94894590    0.00000000
                                                     2        4.5225298       67.72718660    0.00000000
                                      P - F
                                                     0       47.1953145        4.99111440    0.00000000
                                                     1       48.0356033       20.71931720    0.00000000
                                                     2       19.4541456      195.58677580    0.00000000
                                                     2        4.0512875       48.28771760    0.00000000
                                      D - F
                                                     0       79.9073983        3.00492260    0.00000000
                                                     1       45.8263798       25.93779890    0.00000000
                                                     2       26.9903522      125.12449340    0.00000000
                                                     2        9.6835718       70.76340220    0.00000000
                                                     2        2.7995666       15.04928220    0.00000000
   12          8
                                   No pseudopotential on this center.
   13         40           12
                                      F and up 
                                                     0      645.9321873       -0.04258430    0.00000000
                                                     1      134.7547401      -20.22224090    0.00000000
                                                     2       42.3074619     -101.86951720    0.00000000
                                                     2       12.0003227      -41.61957840    0.00000000
                                                     2        4.1260454       -4.69861600    0.00000000
                                      S - F
                                                     0      117.6251862        2.79105590    0.00000000
                                                     1       22.9646089       41.94894590    0.00000000
                                                     2        4.5225298       67.72718660    0.00000000
                                      P - F
                                                     0       47.1953145        4.99111440    0.00000000
                                                     1       48.0356033       20.71931720    0.00000000
                                                     2       19.4541456      195.58677580    0.00000000
                                                     2        4.0512875       48.28771760    0.00000000
                                      D - F
                                                     0       79.9073983        3.00492260    0.00000000
                                                     1       45.8263798       25.93779890    0.00000000
                                                     2       26.9903522      125.12449340    0.00000000
                                                     2        9.6835718       70.76340220    0.00000000
                                                     2        2.7995666       15.04928220    0.00000000
   14          8
                                   No pseudopotential on this center.
   15         40           12
                                      F and up 
                                                     0      645.9321873       -0.04258430    0.00000000
                                                     1      134.7547401      -20.22224090    0.00000000
                                                     2       42.3074619     -101.86951720    0.00000000
                                                     2       12.0003227      -41.61957840    0.00000000
                                                     2        4.1260454       -4.69861600    0.00000000
                                      S - F
                                                     0      117.6251862        2.79105590    0.00000000
                                                     1       22.9646089       41.94894590    0.00000000
                                                     2        4.5225298       67.72718660    0.00000000
                                      P - F
                                                     0       47.1953145        4.99111440    0.00000000
                                                     1       48.0356033       20.71931720    0.00000000
                                                     2       19.4541456      195.58677580    0.00000000
                                                     2        4.0512875       48.28771760    0.00000000
                                      D - F
                                                     0       79.9073983        3.00492260    0.00000000
                                                     1       45.8263798       25.93779890    0.00000000
                                                     2       26.9903522      125.12449340    0.00000000
                                                     2        9.6835718       70.76340220    0.00000000
                                                     2        2.7995666       15.04928220    0.00000000
   16          8
                                   No pseudopotential on this center.
   17          8
                                   No pseudopotential on this center.
   18          8
                                   No pseudopotential on this center.
   19          8
                                   No pseudopotential on this center.
   20          8
                                   No pseudopotential on this center.
   21          8
                                   No pseudopotential on this center.
   22          8
                                   No pseudopotential on this center.
   23          8
                                   No pseudopotential on this center.
   24          8
                                   No pseudopotential on this center.
   25          1
                                   No pseudopotential on this center.
   26          1
                                   No pseudopotential on this center.
   27          1
                                   No pseudopotential on this center.
   28          1
                                   No pseudopotential on this center.
   29          1
                                   No pseudopotential on this center.
   30          1
                                   No pseudopotential on this center.
   31          1
                                   No pseudopotential on this center.
   32          1
                                   No pseudopotential on this center.
   33          1
                                   No pseudopotential on this center.
   34          8
                                   No pseudopotential on this center.
   35          1
                                   No pseudopotential on this center.
   36          8
                                   No pseudopotential on this center.
   37          1
                                   No pseudopotential on this center.
   38          8
                                   No pseudopotential on this center.
   39          1
                                   No pseudopotential on this center.
   40          8
                                   No pseudopotential on this center.
   41          1
                                   No pseudopotential on this center.
   42          8
                                   No pseudopotential on this center.
   43          1
                                   No pseudopotential on this center.
   44          8
                                   No pseudopotential on this center.
   45          1
                                   No pseudopotential on this center.
   46          8
                                   No pseudopotential on this center.
   47          1
                                   No pseudopotential on this center.
   48          8
                                   No pseudopotential on this center.
   49          1
                                   No pseudopotential on this center.
   50          8
                                   No pseudopotential on this center.
   51          1
                                   No pseudopotential on this center.
 ======================================================================================================
 There are   637 symmetry adapted cartesian basis functions of A   symmetry.
 There are   600 symmetry adapted basis functions of A   symmetry.
   600 basis functions,  1230 primitive gaussians,   637 cartesian basis functions
   161 alpha electrons      161 beta electrons
       nuclear repulsion energy      5525.7425612535 Hartrees.
 NAtoms=   51 NActive=   51 NUniq=   51 SFac= 1.00D+00 NAtFMM=   60 NAOKFM=F Big=F
 Integral buffers will be    131072 words long.
 Raffenetti 2 integral format.
 Two-electron integral symmetry is turned on.
 One-electron integrals computed using PRISM.
   1 Symmetry operations used in ECPInt.
 ECPInt:  NShTT=   21321 NPrTT=  126439 LenC2=   14913 LenP2D=   49800.
 LDataN:  DoStor=T MaxTD1= 5 Len=  102
 Number of processors reduced to  12 by ecpmxn.
 NBasis=   600 RedAO= T EigKep=  2.63D-03  NBF=   600
 NBsUse=   600 1.00D-06 EigRej= -1.00D+00 NBFU=   600
 Defaulting to unpruned grid for atomic number  40.
 Defaulting to unpruned grid for atomic number  40.
 Defaulting to unpruned grid for atomic number  40.
 ExpMin= 2.43D-02 ExpMax= 1.61D+04 ExpMxC= 2.43D+03 IAcc=3 IRadAn=         5 AccDes= 0.00D+00
 Harris functional with IExCor=  402 and IRadAn=       5 diagonalized for initial guess.
 HarFok:  IExCor=  402 AccDes= 0.00D+00 IRadAn=         5 IDoV= 1 UseB2=F ITyADJ=14
 ICtDFT=  3500011 ScaDFX=  1.000000  1.000000  1.000000  1.000000
 Defaulting to unpruned grid for atomic number  40.
 FoFCou: FMM=F IPFlag=           0 FMFlag=      100000 FMFlg1=           0
         NFxFlg=           0 DoJE=T BraDBF=F KetDBF=T FulRan=T
         wScrn=  0.000000 ICntrl=       500 IOpCl=  0 I1Cent=   200000004 NGrid=           0
         NMat0=    1 NMatS0=      1 NMatT0=    0 NMatD0=    1 NMtDS0=    0 NMtDT0=    0
 Petite list used in FoFCou.
 Requested convergence on RMS density matrix=1.00D-08 within 128 cycles.
 Requested convergence on MAX density matrix=1.00D-06.
 Requested convergence on             energy=1.00D-06.
 No special actions if energy rises.
 Defaulting to unpruned grid for atomic number  40.
 Defaulting to unpruned grid for atomic number  40.
 Defaulting to unpruned grid for atomic number  40.
 Defaulting to unpruned grid for atomic number  40.
 Defaulting to unpruned grid for atomic number  40.
 Defaulting to unpruned grid for atomic number  40.
 Defaulting to unpruned grid for atomic number  40.
 Defaulting to unpruned grid for atomic number  40.
 Defaulting to unpruned grid for atomic number  40.
 Defaulting to unpruned grid for atomic number  40.
 Defaulting to unpruned grid for atomic number  40.
 Defaulting to unpruned grid for atomic number  40.
 Defaulting to unpruned grid for atomic number  40.
 Defaulting to unpruned grid for atomic number  40.
 Defaulting to unpruned grid for atomic number  40.
 Defaulting to unpruned grid for atomic number  40.
 SCF Done:  E(RB3LYP) =  -3237.55529329     A.U. after   17 cycles
            NFock= 17  Conv=0.34D-08     -V/T= 2.0473

 **********************************************************************

            Population analysis using the SCF Density.

 **********************************************************************

 Orbital symmetries:
       Occupied  (A) (A) (A) (A) (A) (A) (A) (A) (A) (A) (A) (A)
                 (A) (A) (A) (A) (A) (A) (A) (A) (A) (A) (A) (A)
                 (A) (A) (A) (A) (A) (A) (A) (A) (A) (A) (A) (A)
                 (A) (A) (A) (A) (A) (A) (A) (A) (A) (A) (A) (A)
                 (A) (A) (A) (A) (A) (A) (A) (A) (A) (A) (A) (A)
                 (A) (A) (A) (A) (A) (A) (A) (A) (A) (A) (A) (A)
                 (A) (A) (A) (A) (A) (A) (A) (A) (A) (A) (A) (A)
                 (A) (A) (A) (A) (A) (A) (A) (A) (A) (A) (A) (A)
                 (A) (A) (A) (A) (A) (A) (A) (A) (A) (A) (A) (A)
                 (A) (A) (A) (A) (A) (A) (A) (A) (A) (A) (A) (A)
                 (A) (A) (A) (A) (A) (A) (A) (A) (A) (A) (A) (A)
                 (A) (A) (A) (A) (A) (A) (A) (A) (A) (A) (A) (A)
                 (A) (A) (A) (A) (A) (A) (A) (A) (A) (A) (A) (A)
                 (A) (A) (A) (A) (A)
       Virtual   (A) (A) (A) (A) (A) (A) (A) (A) (A) (A) (A) (A)
                 (A) (A) (A) (A) (A) (A) (A) (A) (A) (A) (A) (A)
                 (A) (A) (A) (A) (A) (A) (A) (A) (A) (A) (A) (A)
                 (A) (A) (A) (A) (A) (A) (A) (A) (A) (A) (A) (A)
                 (A) (A) (A) (A) (A) (A) (A) (A) (A) (A) (A) (A)
                 (A) (A) (A) (A) (A) (A) (A) (A) (A) (A) (A) (A)
                 (A) (A) (A) (A) (A) (A) (A) (A) (A) (A) (A) (A)
                 (A) (A) (A) (A) (A) (A) (A) (A) (A) (A) (A) (A)
                 (A) (A) (A) (A) (A) (A) (A) (A) (A) (A) (A) (A)
                 (A) (A) (A) (A) (A) (A) (A) (A) (A) (A) (A) (A)
                 (A) (A) (A) (A) (A) (A) (A) (A) (A) (A) (A) (A)
                 (A) (A) (A) (A) (A) (A) (A) (A) (A) (A) (A) (A)
                 (A) (A) (A) (A) (A) (A) (A) (A) (A) (A) (A) (A)
                 (A) (A) (A) (A) (A) (A) (A) (A) (A) (A) (A) (A)
                 (A) (A) (A) (A) (A) (A) (A) (A) (A) (A) (A) (A)
                 (A) (A) (A) (A) (A) (A) (A) (A) (A) (A) (A) (A)
                 (A) (A) (A) (A) (A) (A) (A) (A) (A) (A) (A) (A)
                 (A) (A) (A) (A) (A) (A) (A) (A) (A) (A) (A) (A)
                 (A) (A) (A) (A) (A) (A) (A) (A) (A) (A) (A) (A)
                 (A) (A) (A) (A) (A) (A) (A) (A) (A) (A) (A) (A)
                 (A) (A) (A) (A) (A) (A) (A) (A) (A) (A) (A) (A)
                 (A) (A) (A) (A) (A) (A) (A) (A) (A) (A) (A) (A)
                 (A) (A) (A) (A) (A) (A) (A) (A) (A) (A) (A) (A)
                 (A) (A) (A) (A) (A) (A) (A) (A) (A) (A) (A) (A)
                 (A) (A) (A) (A) (A) (A) (A) (A) (A) (A) (A) (A)
                 (A) (A) (A) (A) (A) (A) (A) (A) (A) (A) (A) (A)
                 (A) (A) (A) (A) (A) (A) (A) (A) (A) (A) (A) (A)
                 (A) (A) (A) (A) (A) (A) (A) (A) (A) (A) (A) (A)
                 (A) (A) (A) (A) (A) (A) (A) (A) (A) (A) (A) (A)
                 (A) (A) (A) (A) (A) (A) (A) (A) (A) (A) (A) (A)
                 (A) (A) (A) (A) (A) (A) (A) (A) (A) (A) (A) (A)
                 (A) (A) (A) (A) (A) (A) (A) (A) (A) (A) (A) (A)
                 (A) (A) (A) (A) (A) (A) (A) (A) (A) (A) (A) (A)
                 (A) (A) (A) (A) (A) (A) (A) (A) (A) (A) (A) (A)
                 (A) (A) (A) (A) (A) (A) (A) (A) (A) (A) (A) (A)
                 (A) (A) (A) (A) (A) (A) (A) (A) (A) (A) (A) (A)
                 (A) (A) (A) (A) (A) (A) (A)
 The electronic state is 1-A.
 Alpha  occ. eigenvalues --  -66.21790 -66.21568 -66.20457 -66.19909 -19.17149
 Alpha  occ. eigenvalues --  -19.16815 -19.16569 -19.16379 -19.16181 -19.16110
 Alpha  occ. eigenvalues --  -19.15798 -19.15444 -19.15336 -19.15255 -19.15217
 Alpha  occ. eigenvalues --  -19.14731 -19.14445 -19.14344 -19.14281 -19.14266
 Alpha  occ. eigenvalues --  -19.14176 -19.14105 -19.14038 -19.13606 -19.13343
 Alpha  occ. eigenvalues --  -19.12847 -19.12645 -19.12233 -19.11688  -5.35798
 Alpha  occ. eigenvalues --   -5.35707  -5.34671  -5.34116  -3.71761  -3.71740
 Alpha  occ. eigenvalues --   -3.71727  -3.71707  -3.71672  -3.71612  -3.70740
 Alpha  occ. eigenvalues --   -3.70583  -3.70506  -3.70111  -3.70065  -3.69992
 Alpha  occ. eigenvalues --   -2.08482  -2.06800  -2.06771  -2.05138  -1.29611
 Alpha  occ. eigenvalues --   -1.29011  -1.28743  -1.27883  -1.27682  -1.27582
 Alpha  occ. eigenvalues --   -1.27153  -1.26971  -1.26644  -1.25784  -1.25530
 Alpha  occ. eigenvalues --   -1.25180  -1.04924  -1.03632  -1.02739  -1.01519
 Alpha  occ. eigenvalues --   -1.01061  -1.00825  -1.00094  -0.99472  -0.98750
 Alpha  occ. eigenvalues --   -0.98709  -0.98309  -0.98056  -0.97718  -0.97550
 Alpha  occ. eigenvalues --   -0.97413  -0.96686  -0.95484  -0.94986  -0.94712
 Alpha  occ. eigenvalues --   -0.93976  -0.93758  -0.92142  -0.90436  -0.89423
 Alpha  occ. eigenvalues --   -0.88397  -0.61124  -0.59144  -0.58452  -0.55345
 Alpha  occ. eigenvalues --   -0.54068  -0.52939  -0.51957  -0.51697  -0.51551
 Alpha  occ. eigenvalues --   -0.51248  -0.50990  -0.50652  -0.50461  -0.50381
 Alpha  occ. eigenvalues --   -0.50121  -0.49052  -0.48884  -0.47809  -0.46833
 Alpha  occ. eigenvalues --   -0.45712  -0.45608  -0.44907  -0.42513  -0.41467
 Alpha  occ. eigenvalues --   -0.41017  -0.40554  -0.40051  -0.39879  -0.39586
 Alpha  occ. eigenvalues --   -0.39503  -0.38984  -0.38901  -0.38843  -0.38374
 Alpha  occ. eigenvalues --   -0.38080  -0.37410  -0.37076  -0.36707  -0.36522
 Alpha  occ. eigenvalues --   -0.36212  -0.36013  -0.35733  -0.35479  -0.35458
 Alpha  occ. eigenvalues --   -0.35325  -0.35150  -0.35033  -0.34708  -0.34541
 Alpha  occ. eigenvalues --   -0.34441  -0.34333  -0.34235  -0.34100  -0.33799
 Alpha  occ. eigenvalues --   -0.33667  -0.33451  -0.33150  -0.32966  -0.32778
 Alpha  occ. eigenvalues --   -0.32682  -0.32429  -0.32327  -0.32148  -0.31620
 Alpha  occ. eigenvalues --   -0.31526  -0.31287  -0.31112  -0.30938  -0.30820
 Alpha  occ. eigenvalues --   -0.30746  -0.30463  -0.30262  -0.29549  -0.29213
 Alpha  occ. eigenvalues --   -0.28693
 Alpha virt. eigenvalues --   -0.05331  -0.04842  -0.04352  -0.03860  -0.02907
 Alpha virt. eigenvalues --   -0.02758  -0.02110  -0.01721  -0.01427  -0.01318
 Alpha virt. eigenvalues --   -0.00838  -0.00693  -0.00331  -0.00005   0.00301
 Alpha virt. eigenvalues --    0.00615   0.00712   0.00925   0.01377   0.01825
 Alpha virt. eigenvalues --    0.02307   0.02329   0.02561   0.02939   0.02979
 Alpha virt. eigenvalues --    0.03207   0.04036   0.04177   0.04691   0.05060
 Alpha virt. eigenvalues --    0.05549   0.05855   0.06252   0.06590   0.07296
 Alpha virt. eigenvalues --    0.07970   0.08132   0.08595   0.09494   0.09957
 Alpha virt. eigenvalues --    0.10419   0.11157   0.11757   0.12577   0.13180
 Alpha virt. eigenvalues --    0.13741   0.13937   0.14450   0.14726   0.14962
 Alpha virt. eigenvalues --    0.15207   0.16235   0.16361   0.16759   0.16926
 Alpha virt. eigenvalues --    0.17551   0.17748   0.17951   0.18136   0.18425
 Alpha virt. eigenvalues --    0.19359   0.19664   0.19851   0.20033   0.20307
 Alpha virt. eigenvalues --    0.20797   0.21226   0.21702   0.21889   0.22039
 Alpha virt. eigenvalues --    0.22498   0.22660   0.22908   0.23506   0.23791
 Alpha virt. eigenvalues --    0.23969   0.24448   0.24615   0.24805   0.25594
 Alpha virt. eigenvalues --    0.25686   0.26242   0.26779   0.26967   0.27142
 Alpha virt. eigenvalues --    0.27948   0.28046   0.28744   0.29103   0.29335
 Alpha virt. eigenvalues --    0.30251   0.30317   0.30453   0.31156   0.31952
 Alpha virt. eigenvalues --    0.32514   0.33240   0.33503   0.33969   0.35308
 Alpha virt. eigenvalues --    0.35739   0.35775   0.36717   0.36868   0.37679
 Alpha virt. eigenvalues --    0.38349   0.38595   0.39475   0.41083   0.41491
 Alpha virt. eigenvalues --    0.41892   0.43979   0.45906   0.46520   0.47328
 Alpha virt. eigenvalues --    0.48430   0.49306   0.52377   0.55776   0.56901
 Alpha virt. eigenvalues --    0.58614   0.59998   0.60790   0.64496   0.65077
 Alpha virt. eigenvalues --    0.67059   0.76976   0.77188   0.78252   0.79310
 Alpha virt. eigenvalues --    0.80338   0.80430   0.81136   0.81785   0.82433
 Alpha virt. eigenvalues --    0.83143   0.84074   0.84330   0.84764   0.85876
 Alpha virt. eigenvalues --    0.86467   0.87363   0.89104   0.89557   0.90381
 Alpha virt. eigenvalues --    0.90796   0.92109   0.92312   0.92652   0.93085
 Alpha virt. eigenvalues --    0.93338   0.93883   0.94498   0.94672   0.95107
 Alpha virt. eigenvalues --    0.95673   0.96102   0.96631   0.97056   0.97133
 Alpha virt. eigenvalues --    0.97580   0.97854   0.98232   0.98581   0.99237
 Alpha virt. eigenvalues --    0.99478   0.99827   1.00165   1.00501   1.01336
 Alpha virt. eigenvalues --    1.01862   1.01999   1.02565   1.02971   1.03802
 Alpha virt. eigenvalues --    1.04114   1.05074   1.05156   1.05243   1.06409
 Alpha virt. eigenvalues --    1.07027   1.07316   1.07828   1.08232   1.08786
 Alpha virt. eigenvalues --    1.09136   1.09800   1.10158   1.10382   1.11109
 Alpha virt. eigenvalues --    1.11189   1.11878   1.12555   1.13017   1.14204
 Alpha virt. eigenvalues --    1.14345   1.14651   1.15334   1.16245   1.16478
 Alpha virt. eigenvalues --    1.17344   1.18023   1.18305   1.18622   1.18697
 Alpha virt. eigenvalues --    1.19727   1.19996   1.20388   1.20621   1.21474
 Alpha virt. eigenvalues --    1.21908   1.22672   1.22932   1.23687   1.24652
 Alpha virt. eigenvalues --    1.24749   1.25712   1.26904   1.26965   1.27875
 Alpha virt. eigenvalues --    1.28913   1.29299   1.29934   1.30562   1.32184
 Alpha virt. eigenvalues --    1.33056   1.33814   1.34870   1.35584   1.37831
 Alpha virt. eigenvalues --    1.42443   1.42744   1.43143   1.44978   1.46714
 Alpha virt. eigenvalues --    1.48108   1.48927   1.49706   1.50089   1.50984
 Alpha virt. eigenvalues --    1.51715   1.52298   1.53110   1.53560   1.53982
 Alpha virt. eigenvalues --    1.54162   1.54928   1.55409   1.55980   1.56160
 Alpha virt. eigenvalues --    1.57140   1.57316   1.57576   1.57863   1.58099
 Alpha virt. eigenvalues --    1.58346   1.58763   1.59257   1.59415   1.60025
 Alpha virt. eigenvalues --    1.60438   1.61603   1.61942   1.62189   1.62541
 Alpha virt. eigenvalues --    1.63232   1.63656   1.63834   1.64015   1.64698
 Alpha virt. eigenvalues --    1.65498   1.65889   1.65928   1.66677   1.67056
 Alpha virt. eigenvalues --    1.67568   1.68015   1.68612   1.70073   1.70740
 Alpha virt. eigenvalues --    1.71248   1.71690   1.71731   1.72385   1.72835
 Alpha virt. eigenvalues --    1.73162   1.73429   1.73711   1.74775   1.75281
 Alpha virt. eigenvalues --    1.75662   1.76345   1.77126   1.77457   1.77722
 Alpha virt. eigenvalues --    1.78094   1.78379   1.78605   1.78848   1.79005
 Alpha virt. eigenvalues --    1.79475   1.79875   1.80239   1.80721   1.81309
 Alpha virt. eigenvalues --    1.81390   1.81519   1.82085   1.82509   1.82779
 Alpha virt. eigenvalues --    1.83264   1.83510   1.83689   1.84645   1.85040
 Alpha virt. eigenvalues --    1.85499   1.85504   1.86068   1.86484   1.86534
 Alpha virt. eigenvalues --    1.87032   1.87240   1.87334   1.87577   1.88432
 Alpha virt. eigenvalues --    1.89791   1.89939   1.90697   1.90962   1.92393
 Alpha virt. eigenvalues --    1.92658   1.93221   1.94653   1.95043   1.96693
 Alpha virt. eigenvalues --    1.97479   1.97808   1.99240   2.00992   2.01639
 Alpha virt. eigenvalues --    2.04125   2.05786   2.09231   2.09631   2.12152
 Alpha virt. eigenvalues --    2.15270   2.18619   2.31906   2.33135   2.33931
 Alpha virt. eigenvalues --    2.34359   2.34800   2.34963   2.35205   2.35707
 Alpha virt. eigenvalues --    2.36559   2.36598   2.36977   2.38270   2.39621
 Alpha virt. eigenvalues --    2.40154   2.40517   2.41297   2.42721   2.44518
 Alpha virt. eigenvalues --    2.45459   2.46447   2.48100   2.50008   2.52483
 Alpha virt. eigenvalues --    2.56062   2.56928   2.58627   2.58915   2.59527
 Alpha virt. eigenvalues --    2.60089   2.60212   2.60628   2.61246   2.61480
 Alpha virt. eigenvalues --    2.61874   2.61900   2.62333   2.62586   2.62902
 Alpha virt. eigenvalues --    2.63023   2.63103   2.63479   2.63503   2.64143
 Alpha virt. eigenvalues --    2.64164   2.64579   2.65108   2.65470   2.65537
 Alpha virt. eigenvalues --    2.65651   2.65847   2.65997   2.67993   2.68489
 Alpha virt. eigenvalues --    2.69469   2.69941   2.70231   2.71299   2.72682
 Alpha virt. eigenvalues --    2.73981   2.74638   2.75245   2.76421   2.77088
 Alpha virt. eigenvalues --    2.77409   2.77812   2.82021   2.82731   2.85082
 Alpha virt. eigenvalues --    2.87016   2.93979   3.39742   3.40508   3.40803
 Alpha virt. eigenvalues --    3.41307   3.41639   3.42043   3.43329   3.44192
 Alpha virt. eigenvalues --    3.44939   3.45681   3.45997   3.47530   3.47583
 Alpha virt. eigenvalues --    3.49449   3.49774   3.52599   3.54924   3.55424
 Alpha virt. eigenvalues --    4.69799   6.15056   6.51809   7.78130
          Condensed to atoms (all electrons):
 Mulliken charges:
               1
     1  Si   1.285873
     2  O   -0.640589
     3  O   -0.653327
     4  O   -0.654379
     5  O   -0.761352
     6  Zr   1.626383
     7  Si   1.101442
     8  Si   1.155655
     9  Si   1.133174
    10  O   -0.819047
    11  Zr   1.495697
    12  O   -0.819184
    13  Zr   1.594161
    14  O   -0.827315
    15  Zr   1.551462
    16  O   -0.626341
    17  O   -0.574179
    18  O   -0.665645
    19  O   -0.627227
    20  O   -0.613408
    21  O   -0.600013
    22  O   -0.579840
    23  O   -0.652753
    24  O   -0.618717
    25  H    0.354866
    26  H    0.334105
    27  H    0.367054
    28  H    0.368654
    29  H    0.365532
    30  H    0.337659
    31  H    0.336502
    32  H    0.337915
    33  H    0.342736
    34  O   -0.695463
    35  H    0.332460
    36  O   -0.706892
    37  H    0.365537
    38  O   -0.750090
    39  H    0.331232
    40  O   -0.763953
    41  H    0.371437
    42  O   -0.694290
    43  H    0.333859
    44  O   -0.699521
    45  H    0.335183
    46  O   -0.762741
    47  H    0.380310
    48  O   -0.741596
    49  H    0.339870
    50  O   -0.682257
    51  H    0.351365
 Sum of Mulliken charges =  -0.00000
 Mulliken charges with hydrogens summed into heavy atoms:
               1
     1  Si   1.285873
     2  O   -0.640589
     3  O   -0.653327
     4  O   -0.654379
     5  O   -0.761352
     6  Zr   1.626383
     7  Si   1.101442
     8  Si   1.155655
     9  Si   1.133174
    10  O   -0.819047
    11  Zr   1.495697
    12  O   -0.819184
    13  Zr   1.594161
    14  O   -0.827315
    15  Zr   1.551462
    16  O   -0.288682
    17  O   -0.237678
    18  O   -0.300114
    19  O   -0.284491
    20  O   -0.244755
    21  O   -0.262098
    22  O   -0.245736
    23  O   -0.297887
    24  O   -0.251663
    34  O   -0.363003
    36  O   -0.341356
    38  O   -0.418858
    40  O   -0.392516
    42  O   -0.360431
    44  O   -0.364339
    46  O   -0.382431
    48  O   -0.401726
    50  O   -0.330891
 Electronic spatial extent (au):  <R**2>=          27242.5515
 Charge=             -0.0000 electrons
 Dipole moment (field-independent basis, Debye):
    X=              3.8901    Y=              4.0629    Z=              1.9652  Tot=              5.9583
 Quadrupole moment (field-independent basis, Debye-Ang):
   XX=           -301.5674   YY=           -256.1615   ZZ=           -261.8753
   XY=              1.9780   XZ=             12.8361   YZ=             -8.3530
 Traceless Quadrupole moment (field-independent basis, Debye-Ang):
   XX=            -28.3660   YY=             17.0399   ZZ=             11.3261
   XY=              1.9780   XZ=             12.8361   YZ=             -8.3530
 Octapole moment (field-independent basis, Debye-Ang**2):
  XXX=            379.9308  YYY=            111.6991  ZZZ=            -55.5136  XYY=            150.8764
  XXY=             19.3836  XXZ=             41.4322  XZZ=            178.4446  YZZ=             35.8503
  YYZ=            -10.7724  XYZ=             62.6814
 Hexadecapole moment (field-independent basis, Debye-Ang**3):
 XXXX=         -25191.9572 YYYY=          -5830.9272 ZZZZ=          -5374.6246 XXXY=            399.2602
 XXXZ=            113.8173 YYYX=            136.8136 YYYZ=             51.9683 ZZZX=            197.7710
 ZZZY=            -59.7727 XXYY=          -5003.1579 XXZZ=          -4579.0123 YYZZ=          -1752.0101
 XXYZ=           -523.1701 YYXZ=           -245.2041 ZZXY=             59.8522
 N-N= 5.525742561254D+03 E-N=-1.865273877345D+04  KE= 3.091256745678D+03
   1 Symmetry operations used in ECPInt.
 ECPInt:  NShTT=   21321 NPrTT=  126439 LenC2=   14913 LenP2D=   49800.
 LDataN:  DoStor=T MaxTD1= 6 Len=  172
 Number of processors reduced to  14 by ecpmxn.
 Calling FoFJK, ICntrl=      2127 FMM=F ISym2X=0 I1Cent= 0 IOpClX= 0 NMat=1 NMatS=1 NMatT=0.
 Defaulting to unpruned grid for atomic number  40.
 Defaulting to unpruned grid for atomic number  40.
 Defaulting to unpruned grid for atomic number  40.
 Defaulting to unpruned grid for atomic number  40.
 Defaulting to unpruned grid for atomic number  40.
 Defaulting to unpruned grid for atomic number  40.
 Defaulting to unpruned grid for atomic number  40.
 Defaulting to unpruned grid for atomic number  40.
 Defaulting to unpruned grid for atomic number  40.
 Defaulting to unpruned grid for atomic number  40.
 Defaulting to unpruned grid for atomic number  40.
 Defaulting to unpruned grid for atomic number  40.
 Defaulting to unpruned grid for atomic number  40.
 Defaulting to unpruned grid for atomic number  40.
 Defaulting to unpruned grid for atomic number  40.
 Defaulting to unpruned grid for atomic number  40.
 ***** Axes restored to original set *****
 -------------------------------------------------------------------
 Center     Atomic                   Forces (Hartrees/Bohr)
 Number     Number              X              Y              Z
 -------------------------------------------------------------------
      1       14           0.004021560   -0.001671770    0.005823510
      2        8          -0.000578169    0.001080423   -0.002668971
      3        8          -0.000027768    0.000343033   -0.000745371
      4        8           0.000002011    0.000103465   -0.000848110
      5        8           0.002757099    0.000539077   -0.003661200
      6       40          -0.004770461   -0.000754206    0.004564009
      7       14           0.004064601    0.000359762    0.000510700
      8       14           0.000758594   -0.000807452    0.000502739
      9       14           0.000465552    0.000213287    0.000845305
     10        8           0.000774914   -0.000736748   -0.000808151
     11       40          -0.000399866    0.000907420    0.000072526
     12        8           0.004859676   -0.003649293   -0.004488630
     13       40          -0.007992386    0.009332686   -0.007629221
     14        8           0.000956915    0.000821898   -0.000600612
     15       40          -0.000700017   -0.000325872    0.000400852
     16        8          -0.000215874    0.000044953   -0.000284654
     17        8          -0.000108227    0.000287716   -0.000071061
     18        8          -0.000413242    0.000297344   -0.000451062
     19        8          -0.001024675   -0.000420188   -0.000465350
     20        8          -0.001254880    0.000485892   -0.000139589
     21        8           0.005209835    0.003877741   -0.007258003
     22        8          -0.000076701   -0.000078428   -0.000265536
     23        8          -0.000188865   -0.000019079   -0.000213856
     24        8          -0.000254089   -0.000185373   -0.000554302
     25        1          -0.000020960   -0.000067456    0.000071500
     26        1           0.000020879    0.000039608    0.000041310
     27        1           0.000271797    0.000326442    0.000514419
     28        1           0.000476103   -0.000274169    0.000331154
     29        1           0.000157890    0.000103867    0.000071347
     30        1           0.000012020   -0.000026166    0.000080793
     31        1           0.000005212   -0.000147446    0.000076488
     32        1          -0.007306641   -0.004569122    0.008100315
     33        1           0.000354346    0.000214835    0.000064622
     34        8          -0.000099385   -0.000101838   -0.000080717
     35        1           0.000025752    0.000008042    0.000011433
     36        8           0.000075458   -0.000166810    0.000016083
     37        1          -0.000054646    0.000117263    0.000026237
     38        8          -0.000015268   -0.000275027    0.000242170
     39        1           0.000034787    0.000015635   -0.000008381
     40        8           0.000406339   -0.000210396    0.000089456
     41        1          -0.000157560    0.000149331   -0.000260257
     42        8           0.000014741    0.000072998   -0.000213736
     43        1           0.000011232   -0.000011855    0.000018894
     44        8           0.000092566    0.000134915    0.000043310
     45        1          -0.000040441   -0.000029950   -0.000011850
     46        8          -0.000051392   -0.000245891    0.000599721
     47        1           0.000079480   -0.000019347   -0.000334136
     48        8           0.000122850   -0.000381901    0.000482470
     49        1           0.000080366    0.000175448   -0.000216971
     50        8          -0.008765356   -0.001873833    0.010726386
     51        1           0.008404292   -0.003003465   -0.002048023
 -------------------------------------------------------------------
 Cartesian Forces:  Max     0.010726386 RMS     0.002479693

 GradGradGradGradGradGradGradGradGradGradGradGradGradGradGradGradGradGrad
 Berny optimization.
 FormGI is forming the generalized inverse of G from B-inverse, IUseBI=4.
 Internal  Forces:  Max     0.011719784 RMS     0.001802614
 Search for a local minimum.
 Step number   1 out of a maximum of  229
 All quantities printed in internal units (Hartrees-Bohrs-Radians)
 Mixed Optimization -- RFO/linear search
 Second derivative matrix not updated -- first step.
 ITU=  0
     Eigenvalues ---    0.00230   0.00230   0.00230   0.00230   0.00230
     Eigenvalues ---    0.00230   0.00230   0.00230   0.00230   0.00230
     Eigenvalues ---    0.00230   0.00230   0.00230   0.00230   0.00230
     Eigenvalues ---    0.00230   0.03447   0.03470   0.03516   0.03601
     Eigenvalues ---    0.03614   0.03629   0.03654   0.03686   0.03816
     Eigenvalues ---    0.03823   0.03827   0.03839   0.03923   0.03964
     Eigenvalues ---    0.04008   0.04039   0.06239   0.08354   0.08564
     Eigenvalues ---    0.08974   0.09448   0.10123   0.10678   0.11232
     Eigenvalues ---    0.11368   0.11507   0.11595   0.11636   0.11773
     Eigenvalues ---    0.11825   0.11923   0.12003   0.12146   0.12566
     Eigenvalues ---    0.12661   0.12746   0.12781   0.12915   0.12948
     Eigenvalues ---    0.13420   0.16000   0.16000   0.16000   0.16000
     Eigenvalues ---    0.16000   0.16000   0.16000   0.16000   0.16000
     Eigenvalues ---    0.16000   0.16000   0.16000   0.16000   0.16000
     Eigenvalues ---    0.16000   0.16000   0.16000   0.16000   0.16475
     Eigenvalues ---    0.16653   0.16972   0.17555   0.17903   0.18060
     Eigenvalues ---    0.18629   0.18752   0.19259   0.19512   0.19624
     Eigenvalues ---    0.19663   0.19719   0.19731   0.19849   0.20192
     Eigenvalues ---    0.20247   0.20296   0.20320   0.20376   0.20393
     Eigenvalues ---    0.20422   0.20645   0.20651   0.20806   0.20823
     Eigenvalues ---    0.20868   0.21021   0.21050   0.21076   0.21270
     Eigenvalues ---    0.21906   0.25000   0.25000   0.25000   0.25000
     Eigenvalues ---    0.25000   0.25000   0.40115   0.40361   0.40848
     Eigenvalues ---    0.41777   0.41931   0.42098   0.42374   0.42741
     Eigenvalues ---    0.44274   0.44356   0.44406   0.44546   0.45586
     Eigenvalues ---    0.46106   0.46669   0.47064   0.51271   0.51297
     Eigenvalues ---    0.51607   0.51682   0.51718   0.52103   0.52343
     Eigenvalues ---    0.52512   0.53065   0.54681   0.54684   0.54736
     Eigenvalues ---    0.54743   0.54756   0.54764   0.55003   0.55454
     Eigenvalues ---    0.556791000.000001000.000001000.000001000.00000
     Eigenvalues --- 1000.000001000.000001000.000001000.000001000.00000
     Eigenvalues --- 1000.000001000.000001000.000001000.000001000.00000
     Eigenvalues --- 1000.000001000.000001000.000001000.000001000.00000
     Eigenvalues --- 1000.000001000.000001000.000001000.000001000.00000
     Eigenvalues --- 1000.000001000.000001000.000001000.000001000.00000
     Eigenvalues --- 1000.000001000.000001000.000001000.000001000.00000
     Eigenvalues --- 1000.000001000.000001000.000001000.000001000.00000
     Eigenvalues --- 1000.000001000.000001000.000001000.000001000.00000
     Eigenvalues --- 1000.000001000.000001000.000001000.000001000.00000
     Eigenvalues --- 1000.000001000.000001000.000001000.000001000.00000
     Eigenvalues --- 1000.000001000.000001000.000001000.000001000.00000
     Eigenvalues --- 1000.000001000.000001000.000001000.000001000.00000
     Eigenvalues --- 1000.000001000.000001000.000001000.000001000.00000
     Eigenvalues --- 1000.000001000.000001000.000001000.00000
 RFO step:  Lambda=-3.39431596D-03 EMin= 2.30000000D-03
 Linear search not attempted -- first point.
 Iteration  1 RMS(Cart)=  0.14230832 RMS(Int)=  0.00408681
 Iteration  2 RMS(Cart)=  0.01177342 RMS(Int)=  0.00003432
 Iteration  3 RMS(Cart)=  0.00006120 RMS(Int)=  0.00002350
 Iteration  4 RMS(Cart)=  0.00000000 RMS(Int)=  0.00002350
 Iteration  1 RMS(Cart)=  0.00000000 RMS(Int)=  0.00000000
 Variable       Old X    -DE/DX   Delta X   Delta X   Delta X     New X
                                 (Linear)    (Quad)   (Total)
    R1        3.09828  -0.00169   0.00000  -0.00379  -0.00379   3.09449
    R2        3.12499  -0.00002   0.00000  -0.00005  -0.00005   3.12494
    R3        3.09671  -0.00011   0.00000  -0.00024  -0.00024   3.09648
    R4        3.06649  -0.00295   0.00000  -0.00622  -0.00622   3.06028
    R5        3.07712   0.00107   0.00000   0.00230   0.00230   3.07942
    R6        3.11691  -0.00025   0.00000  -0.00057  -0.00057   3.11634
    R7        3.14118  -0.00025   0.00000  -0.00060  -0.00060   3.14058
    R8        3.80050  -0.00707   0.00000  -0.03954  -0.03954   3.76096
    R9        3.64785   0.00057   0.00000   0.00258   0.00258   3.65043
   R10        3.82478  -0.00421   0.00000  -0.02429  -0.02429   3.80049
   R11        3.72227   0.00094   0.00000   0.00473   0.00473   3.72699
   R12        3.15098   0.00042   0.00000   0.00104   0.00104   3.15202
   R13        3.08301   0.00073   0.00000   0.00159   0.00159   3.08460
   R14        3.12149  -0.00145   0.00000  -0.00340  -0.00340   3.11809
   R15        3.12908   0.00027   0.00000   0.00065   0.00065   3.12973
   R16        3.09506   0.00015   0.00000   0.00033   0.00033   3.09539
   R17        3.12711  -0.00045   0.00000  -0.00107  -0.00107   3.12604
   R18        3.09730   0.00022   0.00000   0.00050   0.00050   3.09780
   R19        3.14766   0.00009   0.00000   0.00023   0.00023   3.14789
   R20        3.07084  -0.00012   0.00000  -0.00025  -0.00025   3.07059
   R21        3.84640  -0.00070   0.00000  -0.00416  -0.00416   3.84223
   R22        3.71853   0.00011   0.00000   0.00053   0.00053   3.71906
   R23        3.67543  -0.00002   0.00000  -0.00011  -0.00011   3.67532
   R24        3.83858   0.00032   0.00000   0.00187   0.00187   3.84045
   R25        3.72622  -0.00870   0.00000  -0.04383  -0.04383   3.68239
   R26        3.78032  -0.00003   0.00000  -0.00017  -0.00017   3.78016
   R27        3.78652   0.00002   0.00000   0.00009   0.00009   3.78662
   R28        3.66752   0.00993   0.00000   0.04596   0.04596   3.71348
   R29        3.75385  -0.00043   0.00000  -0.00227  -0.00227   3.75158
   R30        3.75846   0.00016   0.00000   0.00085   0.00085   3.75931
   R31        3.69500   0.00020   0.00000   0.00099   0.00099   3.69599
   R32        3.68180   0.00011   0.00000   0.00051   0.00051   3.68231
   R33        1.82117  -0.00008   0.00000  -0.00014  -0.00014   1.82102
   R34        1.82049  -0.00004   0.00000  -0.00008  -0.00008   1.82042
   R35        1.85304  -0.00016   0.00000  -0.00032  -0.00032   1.85272
   R36        1.82114  -0.00022   0.00000  -0.00039  -0.00039   1.82074
   R37        1.84977  -0.00063   0.00000  -0.00121  -0.00121   1.84856
   R38        1.84500  -0.01172   0.00000  -0.02235  -0.02235   1.82266
   R39        1.82042  -0.00002   0.00000  -0.00004  -0.00004   1.82038
   R40        1.83593  -0.00008   0.00000  -0.00016  -0.00016   1.83577
   R41        1.84272   0.00064   0.00000   0.00122   0.00122   1.84394
   R42        1.81829  -0.00000   0.00000  -0.00000  -0.00000   1.81829
   R43        1.84905   0.00008   0.00000   0.00015   0.00015   1.84920
   R44        1.82068  -0.00001   0.00000  -0.00002  -0.00002   1.82066
   R45        1.85278  -0.00033   0.00000  -0.00064  -0.00064   1.85215
   R46        1.81431  -0.00002   0.00000  -0.00004  -0.00004   1.81427
   R47        1.81234  -0.00002   0.00000  -0.00003  -0.00003   1.81231
   R48        1.84871   0.00007   0.00000   0.00014   0.00014   1.84885
   R49        1.82061  -0.00004   0.00000  -0.00008  -0.00008   1.82054
   R50        1.84112  -0.00812   0.00000  -0.01536  -0.01536   1.82576
    A1        1.89403   0.00023   0.00000   0.00393   0.00390   1.89793
    A2        1.88617  -0.00150   0.00000  -0.00688  -0.00684   1.87933
    A3        1.87938   0.00359   0.00000   0.02244   0.02244   1.90182
    A4        1.91364   0.00041   0.00000  -0.00329  -0.00334   1.91029
    A5        1.92354  -0.00124   0.00000  -0.00598  -0.00609   1.91744
    A6        1.96515  -0.00139   0.00000  -0.00930  -0.00933   1.95583
    A7        2.84348  -0.00405   0.00000  -0.01598  -0.01598   2.82750
    A8        2.31720   0.00035   0.00000   0.00138   0.00138   2.31858
    A9        2.35610  -0.00132   0.00000  -0.00520  -0.00520   2.35090
   A10        2.79252  -0.00401   0.00000   0.00000  -0.00000   2.79252
   A11        1.98021   0.00125   0.00000   0.00729   0.00726   1.98747
   A12        1.98271  -0.00299   0.00000  -0.01967  -0.01965   1.96305
   A13        1.99112   0.00065   0.00000   0.00418   0.00415   1.99527
   A14        1.77332   0.00059   0.00000   0.00186   0.00186   1.77518
   A15        1.88957  -0.00086   0.00000   0.00054   0.00050   1.89008
   A16        1.82833   0.00137   0.00000   0.00573   0.00573   1.83406
   A17        1.81235  -0.00154   0.00000  -0.00876  -0.00880   1.80355
   A18        1.98544  -0.00092   0.00000  -0.00428  -0.00437   1.98107
   A19        1.86767   0.00403   0.00000   0.02595   0.02595   1.89361
   A20        1.94580   0.00002   0.00000  -0.00637  -0.00643   1.93938
   A21        1.92845  -0.00053   0.00000  -0.00287  -0.00287   1.92558
   A22        1.92030  -0.00093   0.00000  -0.00273  -0.00278   1.91752
   A23        1.94596  -0.00016   0.00000  -0.00089  -0.00089   1.94507
   A24        1.88055  -0.00011   0.00000  -0.00046  -0.00046   1.88009
   A25        1.93311   0.00057   0.00000   0.00361   0.00361   1.93673
   A26        1.93173  -0.00000   0.00000  -0.00092  -0.00092   1.93081
   A27        1.82723  -0.00015   0.00000  -0.00076  -0.00076   1.82647
   A28        1.94617  -0.00014   0.00000  -0.00058  -0.00058   1.94559
   A29        1.88532  -0.00006   0.00000  -0.00044  -0.00044   1.88489
   A30        1.89442   0.00032   0.00000   0.00171   0.00172   1.89613
   A31        1.95715  -0.00026   0.00000  -0.00133  -0.00133   1.95582
   A32        1.87632  -0.00021   0.00000  -0.00090  -0.00090   1.87542
   A33        1.94135   0.00020   0.00000   0.00076   0.00076   1.94211
   A34        1.90697   0.00002   0.00000   0.00023   0.00023   1.90720
   A35        2.53226  -0.00059   0.00000  -0.00232  -0.00232   2.52994
   A36        1.81826   0.00010   0.00000   0.00101   0.00101   1.81927
   A37        1.87907   0.00008   0.00000   0.00015   0.00015   1.87921
   A38        2.09285  -0.00024   0.00000  -0.00180  -0.00180   2.09105
   A39        1.80039   0.00007   0.00000   0.00116   0.00116   1.80155
   A40        1.73310   0.00003   0.00000   0.00057   0.00057   1.73367
   A41        2.08556   0.00003   0.00000  -0.00020  -0.00020   2.08535
   A42        2.29330   0.00202   0.00000   0.00796   0.00796   2.30126
   A43        1.83467  -0.00128   0.00000  -0.00463  -0.00461   1.83006
   A44        1.90442  -0.00115   0.00000  -0.00305  -0.00308   1.90134
   A45        1.85062   0.00455   0.00000   0.03237   0.03239   1.88301
   A46        1.91620   0.00072   0.00000  -0.00594  -0.00605   1.91015
   A47        1.99552  -0.00152   0.00000  -0.00995  -0.01005   1.98547
   A48        1.95546  -0.00122   0.00000  -0.00695  -0.00709   1.94837
   A49        2.44669   0.00050   0.00000   0.00199   0.00199   2.44868
   A50        1.83016   0.00032   0.00000   0.00242   0.00242   1.83259
   A51        1.92532  -0.00009   0.00000  -0.00060  -0.00060   1.92472
   A52        1.89530  -0.00005   0.00000   0.00008   0.00007   1.89537
   A53        1.89947  -0.00018   0.00000  -0.00117  -0.00117   1.89830
   A54        1.93644   0.00002   0.00000   0.00027   0.00027   1.93671
   A55        1.97197  -0.00000   0.00000  -0.00076  -0.00076   1.97121
   A56        2.03455  -0.00006   0.00000  -0.00036  -0.00036   2.03419
   A57        2.01642  -0.00020   0.00000  -0.00125  -0.00125   2.01517
   A58        1.93923   0.00000   0.00000   0.00001   0.00001   1.93924
   A59        2.03937  -0.00046   0.00000  -0.00281  -0.00281   2.03656
   A60        1.98603  -0.00019   0.00000  -0.00114  -0.00114   1.98489
   A61        1.92108   0.00268   0.00000   0.01639   0.01639   1.93747
   A62        2.02348  -0.00010   0.00000  -0.00062  -0.00062   2.02287
[...]
 Rotational constants (GHZ):           0.0814162           0.0351866           0.0334733

 **********************************************************************

            Population analysis using the SCF Density.

 **********************************************************************

 Orbital symmetries:
       Occupied  (A) (A) (A) (A) (A) (A) (A) (A) (A) (A) (A) (A)
                 (A) (A) (A) (A) (A) (A) (A) (A) (A) (A) (A) (A)
                 (A) (A) (A) (A) (A) (A) (A) (A) (A) (A) (A) (A)
                 (A) (A) (A) (A) (A) (A) (A) (A) (A) (A) (A) (A)
                 (A) (A) (A) (A) (A) (A) (A) (A) (A) (A) (A) (A)
                 (A) (A) (A) (A) (A) (A) (A) (A) (A) (A) (A) (A)
                 (A) (A) (A) (A) (A) (A) (A) (A) (A) (A) (A) (A)
                 (A) (A) (A) (A) (A) (A) (A) (A) (A) (A) (A) (A)
                 (A) (A) (A) (A) (A) (A) (A) (A) (A) (A) (A) (A)
                 (A) (A) (A) (A) (A) (A) (A) (A) (A) (A) (A) (A)
                 (A) (A) (A) (A) (A) (A) (A) (A) (A) (A) (A) (A)
                 (A) (A) (A) (A) (A) (A) (A) (A) (A) (A) (A) (A)
                 (A) (A) (A) (A) (A) (A) (A) (A) (A) (A) (A) (A)
                 (A) (A) (A) (A) (A)
       Virtual   (A) (A) (A) (A) (A) (A) (A) (A) (A) (A) (A) (A)
                 (A) (A) (A) (A) (A) (A) (A) (A) (A) (A) (A) (A)
                 (A) (A) (A) (A) (A) (A) (A) (A) (A) (A) (A) (A)
                 (A) (A) (A) (A) (A) (A) (A) (A) (A) (A) (A) (A)
                 (A) (A) (A) (A) (A) (A) (A) (A) (A) (A) (A) (A)
                 (A) (A) (A) (A) (A) (A) (A) (A) (A) (A) (A) (A)
                 (A) (A) (A) (A) (A) (A) (A) (A) (A) (A) (A) (A)
                 (A) (A) (A) (A) (A) (A) (A) (A) (A) (A) (A) (A)
                 (A) (A) (A) (A) (A) (A) (A) (A) (A) (A) (A) (A)
                 (A) (A) (A) (A) (A) (A) (A) (A) (A) (A) (A) (A)
                 (A) (A) (A) (A) (A) (A) (A) (A) (A) (A) (A) (A)
                 (A) (A) (A) (A) (A) (A) (A) (A) (A) (A) (A) (A)
                 (A) (A) (A) (A) (A) (A) (A) (A) (A) (A) (A) (A)
                 (A) (A) (A) (A) (A) (A) (A) (A) (A) (A) (A) (A)
                 (A) (A) (A) (A) (A) (A) (A) (A) (A) (A) (A) (A)
                 (A) (A) (A) (A) (A) (A) (A) (A) (A) (A) (A) (A)
                 (A) (A) (A) (A) (A) (A) (A) (A) (A) (A) (A) (A)
                 (A) (A) (A) (A) (A) (A) (A) (A) (A) (A) (A) (A)
                 (A) (A) (A) (A) (A) (A) (A) (A) (A) (A) (A) (A)
                 (A) (A) (A) (A) (A) (A) (A) (A) (A) (A) (A) (A)
                 (A) (A) (A) (A) (A) (A) (A) (A) (A) (A) (A) (A)
                 (A) (A) (A) (A) (A) (A) (A) (A) (A) (A) (A) (A)
                 (A) (A) (A) (A) (A) (A) (A) (A) (A) (A) (A) (A)
                 (A) (A) (A) (A) (A) (A) (A) (A) (A) (A) (A) (A)
                 (A) (A) (A) (A) (A) (A) (A) (A) (A) (A) (A) (A)
                 (A) (A) (A) (A) (A) (A) (A) (A) (A) (A) (A) (A)
                 (A) (A) (A) (A) (A) (A) (A) (A) (A) (A) (A) (A)
                 (A) (A) (A) (A) (A) (A) (A) (A) (A) (A) (A) (A)
                 (A) (A) (A) (A) (A) (A) (A) (A) (A) (A) (A) (A)
                 (A) (A) (A) (A) (A) (A) (A) (A) (A) (A) (A) (A)
                 (A) (A) (A) (A) (A) (A) (A) (A) (A) (A) (A) (A)
                 (A) (A) (A) (A) (A) (A) (A) (A) (A) (A) (A) (A)
                 (A) (A) (A) (A) (A) (A) (A) (A) (A) (A) (A) (A)
                 (A) (A) (A) (A) (A) (A) (A) (A) (A) (A) (A) (A)
                 (A) (A) (A) (A) (A) (A) (A) (A) (A) (A) (A) (A)
                 (A) (A) (A) (A) (A) (A) (A) (A) (A) (A) (A) (A)
                 (A) (A) (A) (A) (A) (A) (A)
 The electronic state is 1-A.
 Alpha  occ. eigenvalues --  -66.21514 -66.21240 -66.20293 -66.19526 -19.16639
 Alpha  occ. eigenvalues --  -19.16558 -19.16350 -19.16255 -19.15874 -19.15825
 Alpha  occ. eigenvalues --  -19.15487 -19.15029 -19.14883 -19.14870 -19.14838
 Alpha  occ. eigenvalues --  -19.14805 -19.14256 -19.14038 -19.13919 -19.13852
 Alpha  occ. eigenvalues --  -19.13791 -19.13710 -19.13681 -19.13346 -19.12966
 Alpha  occ. eigenvalues --  -19.12432 -19.12314 -19.11866 -19.11423  -5.35476
 Alpha  occ. eigenvalues --   -5.35423  -5.34518  -5.33735  -3.71434  -3.71423
 Alpha  occ. eigenvalues --   -3.71420  -3.71402  -3.71381  -3.71340  -3.70495
 Alpha  occ. eigenvalues --   -3.70464  -3.70410  -3.69756  -3.69665  -3.69603
 Alpha  occ. eigenvalues --   -2.08160  -2.06353  -2.06308  -2.04793  -1.29310
 Alpha  occ. eigenvalues --   -1.28616  -1.28441  -1.27437  -1.27215  -1.27170
 Alpha  occ. eigenvalues --   -1.26712  -1.26612  -1.26211  -1.25460  -1.25145
 Alpha  occ. eigenvalues --   -1.24847  -1.04634  -1.03525  -1.02436  -1.01263
 Alpha  occ. eigenvalues --   -1.00771  -1.00594  -1.00211  -0.99009  -0.98620
 Alpha  occ. eigenvalues --   -0.98359  -0.98010  -0.97776  -0.97442  -0.97184
 Alpha  occ. eigenvalues --   -0.97182  -0.96291  -0.95115  -0.94622  -0.94470
 Alpha  occ. eigenvalues --   -0.93635  -0.93419  -0.91818  -0.90099  -0.89032
 Alpha  occ. eigenvalues --   -0.88031  -0.60902  -0.58825  -0.58160  -0.54890
 Alpha  occ. eigenvalues --   -0.53859  -0.52570  -0.51969  -0.51455  -0.51399
 Alpha  occ. eigenvalues --   -0.51300  -0.51009  -0.50521  -0.50477  -0.50088
 Alpha  occ. eigenvalues --   -0.49751  -0.49551  -0.48462  -0.47396  -0.46439
 Alpha  occ. eigenvalues --   -0.45494  -0.45309  -0.44537  -0.42096  -0.41123
 Alpha  occ. eigenvalues --   -0.40846  -0.39907  -0.39824  -0.39351  -0.39230
 Alpha  occ. eigenvalues --   -0.39016  -0.38746  -0.38602  -0.38081  -0.37879
 Alpha  occ. eigenvalues --   -0.37451  -0.37165  -0.36868  -0.36624  -0.36300
 Alpha  occ. eigenvalues --   -0.36070  -0.35793  -0.35465  -0.35223  -0.35019
 Alpha  occ. eigenvalues --   -0.34971  -0.34848  -0.34809  -0.34660  -0.34530
 Alpha  occ. eigenvalues --   -0.34226  -0.34202  -0.33784  -0.33696  -0.33587
 Alpha  occ. eigenvalues --   -0.33186  -0.33060  -0.32899  -0.32820  -0.32636
 Alpha  occ. eigenvalues --   -0.32465  -0.32219  -0.31932  -0.31585  -0.31566
 Alpha  occ. eigenvalues --   -0.31196  -0.31017  -0.30719  -0.30591  -0.30513
 Alpha  occ. eigenvalues --   -0.30382  -0.30234  -0.29937  -0.29190  -0.28958
 Alpha  occ. eigenvalues --   -0.28354
 Alpha virt. eigenvalues --   -0.04724  -0.04222  -0.03906  -0.03328  -0.02472
 Alpha virt. eigenvalues --   -0.02395  -0.01808  -0.01404  -0.01068  -0.01019
 Alpha virt. eigenvalues --   -0.00763  -0.00152   0.00080   0.00340   0.00560
 Alpha virt. eigenvalues --    0.01043   0.01127   0.01252   0.01730   0.02133
 Alpha virt. eigenvalues --    0.02559   0.02755   0.02974   0.03077   0.03257
 Alpha virt. eigenvalues --    0.03453   0.04275   0.04484   0.04950   0.05305
 Alpha virt. eigenvalues --    0.06045   0.06243   0.06713   0.07038   0.07568
 Alpha virt. eigenvalues --    0.08132   0.08548   0.09019   0.09410   0.10108
 Alpha virt. eigenvalues --    0.10792   0.11419   0.12176   0.12609   0.13568
 Alpha virt. eigenvalues --    0.13868   0.14722   0.15066   0.15158   0.15569
 Alpha virt. eigenvalues --    0.15783   0.16438   0.16727   0.16989   0.17337
 Alpha virt. eigenvalues --    0.17833   0.18005   0.18152   0.18302   0.18518
 Alpha virt. eigenvalues --    0.19554   0.19926   0.20279   0.20555   0.20733
 Alpha virt. eigenvalues --    0.20940   0.21206   0.21790   0.22173   0.22515
 Alpha virt. eigenvalues --    0.22639   0.22998   0.23224   0.23402   0.23861
 Alpha virt. eigenvalues --    0.24335   0.24936   0.25204   0.25399   0.25602
 Alpha virt. eigenvalues --    0.26109   0.26266   0.26568   0.27183   0.27383
 Alpha virt. eigenvalues --    0.27807   0.28642   0.29027   0.29551   0.29598
 Alpha virt. eigenvalues --    0.30497   0.30784   0.30891   0.31194   0.31839
 Alpha virt. eigenvalues --    0.32928   0.33510   0.33957   0.34594   0.35354
 Alpha virt. eigenvalues --    0.35721   0.36385   0.36902   0.37185   0.38262
 Alpha virt. eigenvalues --    0.38471   0.39196   0.39895   0.41060   0.41964
 Alpha virt. eigenvalues --    0.42625   0.43919   0.45476   0.46528   0.47255
 Alpha virt. eigenvalues --    0.47934   0.49864   0.52046   0.56324   0.56749
 Alpha virt. eigenvalues --    0.58544   0.60160   0.60560   0.64496   0.65533
 Alpha virt. eigenvalues --    0.68338   0.76910   0.78073   0.78461   0.79627
 Alpha virt. eigenvalues --    0.80363   0.80731   0.81056   0.82078   0.82630
 Alpha virt. eigenvalues --    0.83581   0.83951   0.84752   0.85169   0.86060
 Alpha virt. eigenvalues --    0.86918   0.87623   0.89587   0.89625   0.90264
 Alpha virt. eigenvalues --    0.90691   0.91513   0.92625   0.92668   0.93315
 Alpha virt. eigenvalues --    0.93782   0.94024   0.94452   0.95296   0.95403
 Alpha virt. eigenvalues --    0.95662   0.96437   0.96842   0.97006   0.97326
 Alpha virt. eigenvalues --    0.97783   0.98262   0.98453   0.99254   0.99676
 Alpha virt. eigenvalues --    0.99810   1.00291   1.00764   1.01012   1.01356
 Alpha virt. eigenvalues --    1.01928   1.02163   1.03079   1.03796   1.04133
 Alpha virt. eigenvalues --    1.04731   1.05548   1.05739   1.06034   1.06415
 Alpha virt. eigenvalues --    1.07149   1.08034   1.08096   1.08680   1.09346
 Alpha virt. eigenvalues --    1.09417   1.09747   1.10044   1.10501   1.11292
 Alpha virt. eigenvalues --    1.11570   1.12732   1.13691   1.13925   1.14838
 Alpha virt. eigenvalues --    1.15339   1.15797   1.16333   1.16577   1.16807
 Alpha virt. eigenvalues --    1.17167   1.17988   1.18504   1.19110   1.19525
 Alpha virt. eigenvalues --    1.19754   1.20274   1.20443   1.21455   1.21855
 Alpha virt. eigenvalues --    1.22061   1.22972   1.23197   1.24540   1.24996
 Alpha virt. eigenvalues --    1.25148   1.26844   1.27295   1.28088   1.28855
 Alpha virt. eigenvalues --    1.29403   1.29538   1.29853   1.30732   1.31738
 Alpha virt. eigenvalues --    1.33136   1.34217   1.34902   1.35487   1.42527
 Alpha virt. eigenvalues --    1.43138   1.43858   1.44983   1.45812   1.46808
 Alpha virt. eigenvalues --    1.47094   1.48699   1.49615   1.50587   1.50636
 Alpha virt. eigenvalues --    1.50923   1.51785   1.53019   1.53584   1.53875
 Alpha virt. eigenvalues --    1.54531   1.54994   1.55843   1.56023   1.56731
 Alpha virt. eigenvalues --    1.56950   1.57060   1.57636   1.58021   1.58444
 Alpha virt. eigenvalues --    1.58595   1.59141   1.59247   1.59609   1.59949
 Alpha virt. eigenvalues --    1.60698   1.61332   1.61601   1.62049   1.62525
 Alpha virt. eigenvalues --    1.63022   1.63225   1.64046   1.64326   1.64767
 Alpha virt. eigenvalues --    1.65512   1.65733   1.66183   1.66259   1.66882
 Alpha virt. eigenvalues --    1.67242   1.67285   1.68778   1.70184   1.70433
 Alpha virt. eigenvalues --    1.70511   1.71880   1.72213   1.72511   1.72799
 Alpha virt. eigenvalues --    1.73518   1.73972   1.74739   1.75245   1.75783
 Alpha virt. eigenvalues --    1.75959   1.76791   1.77226   1.77955   1.78233
 Alpha virt. eigenvalues --    1.78344   1.78536   1.78629   1.79321   1.79561
 Alpha virt. eigenvalues --    1.79803   1.80418   1.80628   1.81003   1.81151
 Alpha virt. eigenvalues --    1.81530   1.81997   1.82895   1.83223   1.83499
 Alpha virt. eigenvalues --    1.83708   1.83817   1.84360   1.84497   1.85279
 Alpha virt. eigenvalues --    1.85525   1.85983   1.86192   1.86672   1.86831
 Alpha virt. eigenvalues --    1.87098   1.87251   1.87701   1.88165   1.88650
 Alpha virt. eigenvalues --    1.89264   1.90350   1.90517   1.91123   1.92958
 Alpha virt. eigenvalues --    1.93507   1.93770   1.95389   1.96131   1.96965
 Alpha virt. eigenvalues --    1.97391   1.97663   1.99294   1.99768   2.02515
 Alpha virt. eigenvalues --    2.04270   2.04761   2.08518   2.09446   2.13329
 Alpha virt. eigenvalues --    2.16170   2.17109   2.33388   2.33931   2.34259
 Alpha virt. eigenvalues --    2.34723   2.35024   2.35631   2.36471   2.37002
 Alpha virt. eigenvalues --    2.37249   2.37553   2.38423   2.39986   2.40456
 Alpha virt. eigenvalues --    2.40939   2.41672   2.42021   2.42905   2.45588
 Alpha virt. eigenvalues --    2.46877   2.47684   2.49758   2.51775   2.53987
 Alpha virt. eigenvalues --    2.55731   2.58905   2.59190   2.60116   2.60719
 Alpha virt. eigenvalues --    2.60821   2.61507   2.61752   2.61767   2.62075
 Alpha virt. eigenvalues --    2.62293   2.62654   2.62740   2.63198   2.63221
 Alpha virt. eigenvalues --    2.63503   2.63621   2.63734   2.63824   2.64401
 Alpha virt. eigenvalues --    2.64444   2.64790   2.64902   2.65491   2.65689
 Alpha virt. eigenvalues --    2.65940   2.66182   2.66460   2.68086   2.68521
 Alpha virt. eigenvalues --    2.68881   2.70246   2.70526   2.71252   2.72648
 Alpha virt. eigenvalues --    2.72749   2.75555   2.75973   2.76428   2.76669
 Alpha virt. eigenvalues --    2.76925   2.78800   2.82779   2.84736   2.86606
 Alpha virt. eigenvalues --    2.87835   2.92114   3.40195   3.40986   3.41544
 Alpha virt. eigenvalues --    3.41983   3.42204   3.42313   3.42927   3.43805
 Alpha virt. eigenvalues --    3.45345   3.45430   3.46418   3.47915   3.48166
 Alpha virt. eigenvalues --    3.49639   3.50611   3.54472   3.55070   3.55141
 Alpha virt. eigenvalues --    4.68643   6.09155   6.49405   7.78294
          Condensed to atoms (all electrons):
 Mulliken charges:
               1
     1  Si   1.279596
     2  O   -0.619854
     3  O   -0.654246
     4  O   -0.649044
     5  O   -0.756476
     6  Zr   1.636073
     7  Si   1.112651
     8  Si   1.150660
     9  Si   1.122473
    10  O   -0.819068
    11  Zr   1.485176
    12  O   -0.817963
    13  Zr   1.625500
    14  O   -0.828635
    15  Zr   1.545469
    16  O   -0.627621
    17  O   -0.574585
    18  O   -0.671007
    19  O   -0.633429
    20  O   -0.634024
    21  O   -0.586528
    22  O   -0.586982
    23  O   -0.645827
    24  O   -0.617526
    25  H    0.355597
    26  H    0.339846
    27  H    0.364572
    28  H    0.368761
    29  H    0.370599
    30  H    0.338451
    31  H    0.335522
    32  H    0.334119
    33  H    0.344045
    34  O   -0.698067
    35  H    0.331697
    36  O   -0.708445
    37  H    0.366174
    38  O   -0.750664
    39  H    0.330106
    40  O   -0.764439
    41  H    0.370439
    42  O   -0.695925
    43  H    0.332884
    44  O   -0.699813
    45  H    0.334198
    46  O   -0.762327
    47  H    0.379900
    48  O   -0.740151
    49  H    0.339353
    50  O   -0.694328
    51  H    0.343114
 Sum of Mulliken charges =  -0.00000
 Mulliken charges with hydrogens summed into heavy atoms:
               1
     1  Si   1.279596
     2  O   -0.619854
     3  O   -0.654246
     4  O   -0.649044
     5  O   -0.756476
     6  Zr   1.636073
     7  Si   1.112651
     8  Si   1.150660
     9  Si   1.122473
    10  O   -0.819068
    11  Zr   1.485176
    12  O   -0.817963
    13  Zr   1.625500
    14  O   -0.828635
    15  Zr   1.545469
    16  O   -0.289170
    17  O   -0.239062
    18  O   -0.300407
    19  O   -0.289384
    20  O   -0.265263
    21  O   -0.252409
    22  O   -0.247136
    23  O   -0.290231
    24  O   -0.252954
    34  O   -0.366371
    36  O   -0.342271
    38  O   -0.420558
    40  O   -0.394000
    42  O   -0.363041
    44  O   -0.365615
    46  O   -0.382427
    48  O   -0.400799
    50  O   -0.351214
 Electronic spatial extent (au):  <R**2>=          27374.5495
 Charge=              0.0000 electrons
 Dipole moment (field-independent basis, Debye):
    X=              4.1335    Y=              1.7374    Z=              6.0421  Tot=              7.5240
 Quadrupole moment (field-independent basis, Debye-Ang):
   XX=           -295.5675   YY=           -248.3217   ZZ=           -258.0782
   XY=             -1.1830   XZ=              2.6359   YZ=             -9.3623
 Traceless Quadrupole moment (field-independent basis, Debye-Ang):
   XX=            -28.2451   YY=             19.0008   ZZ=              9.2443
   XY=             -1.1830   XZ=              2.6359   YZ=             -9.3623
 Octapole moment (field-independent basis, Debye-Ang**2):
  XXX=            435.7916  YYY=             69.7879  ZZZ=            103.5203  XYY=            111.2953
  XXY=            -66.4780  XXZ=            143.6545  XZZ=            161.3045  YZZ=             19.4366
  YYZ=              9.9621  XYZ=             15.1853
 Hexadecapole moment (field-independent basis, Debye-Ang**3):
 XXXX=         -24767.1172 YYYY=          -6009.6464 ZZZZ=          -5000.2773 XXXY=            487.0749
 XXXZ=            288.8068 YYYX=            288.1943 YYYZ=           -110.7915 ZZZX=           -328.8035
 ZZZY=            -77.0857 XXYY=          -4850.1637 XXZZ=          -4734.5319 YYZZ=          -1709.9776
 XXYZ=           -259.7428 YYXZ=            -59.1575 ZZXY=           -151.0952
 N-N= 5.509119042111D+03 E-N=-1.862053556704D+04  KE= 3.091336667232D+03
 1\1\GINC-GRA597\FOpt\RB3LYP\Gen\H18O25Si4Zr4\SARASHS\24-Jun-2020\0\\#n
  B3LYP/GEN PSEUDO=READ Opt(modredundant)\\Title\\0,1\Si,-2.506982507,0
 .5558497751,-0.0482897289\O,-2.6438566514,-0.0560883763,1.4655926729\O
 ,-3.3823424044,1.9595097871,-0.1439442474\O,-3.0968598478,-0.507572041
 9,-1.1400173534\O,-0.9512463692,0.8749555057,-0.3746902949\Zr,0.865481
 4469,0.7068440315,-1.1699895849\Si,-3.6602071022,-0.6936136397,2.58021
 72043\Si,-4.9825325158,2.2460129442,-0.4050828987\Si,-4.2657215519,-1.
 5331135922,-1.692133273\O,1.0680745277,-0.8748669082,-2.2646897142\Zr,
 2.3949267097,-1.9769351981,-3.3383823971\O,2.3397753344,0.4596460109,0
 .1755960599\Zr,4.0156913545,-0.5305906305,0.1912970605\O,1.4199316564,
 2.2695688007,-2.245069055\Zr,3.0228835692,3.0228296298,-3.1339774452\O
 ,-5.3903738705,2.1289845508,-2.0059857087\O,-5.3116261787,3.7521828285
 ,0.1536907784\O,-5.8999805642,1.0926748449,0.3451865243\O,-4.008884398
 9,-2.2124059387,1.9837632278\O,-4.980873815,0.2359327259,2.8256170656\
 O,-2.9205786547,-0.8987801715,4.0326089781\O,-3.9338965667,-1.94155065
 87,-3.2456297863\O,-5.7216893208,-0.7236600952,-1.7179861957\O,-4.3849
 567355,-2.8318163967,-0.7207435562\H,-5.7487489891,0.0294668977,-2.330
 3840423\H,-3.0670372291,-2.3319800732,-3.403817947\H,-4.1937566685,-2.
 6874318906,0.2266323009\H,-5.4381643965,0.5691795141,2.0258747052\H,-6
 .088975824,0.3295840815,-0.2448788544\H,-5.0352220603,2.8067228061,-2.
 5915739131\H,-4.677257981,4.1018975645,0.7889136253\H,-3.0613074826,-0
 .1776238861,4.6559193927\H,-4.5217120808,-2.7723210322,2.5787229778\O,
 1.3652945988,-2.5024672481,-4.9360388742\H,1.4121257131,-2.2220824443,
 -5.8555030426\O,3.7502561043,-0.7771964269,-4.0454146958\H,4.172595855
 6,0.060000775,-3.760810501\O,2.9756653626,-3.8254357898,-2.7184336977\
 H,2.792291078,-4.6368626083,-3.2044456637\O,4.4435550923,1.6528908961,
 -2.8820532501\H,4.9718596925,1.4361462703,-2.0846501898\O,2.7001970502
 ,3.2408716765,-5.0538341459\H,2.5580752129,3.892275371,-5.7450502689\O
 ,3.4979790128,4.6990228868,-2.2530270654\H,3.353598523,5.3327299845,-1
 .5472393313\O,3.7121263207,-1.9348655567,-1.1999714035\H,3.8204562028,
 -2.9012332018,-1.3030038744\O,5.4467498034,0.713717068,-0.4571330372\H
 ,6.3536431109,0.8707816249,-0.1727459161\O,4.4724350569,-1.2924070024,
 1.924284086\H,4.1736833771,-1.4738680443,2.8197742944\\Version=ES64L-G
 16RevB.01\State=1-A\HF=-3237.5631928\RMSD=9.899e-09\RMSF=1.452e-04\Dip
 ole=2.0672923,1.65445,1.3235322\Quadrupole=-16.7158807,7.5431522,9.172
 7285,-2.7434251,11.5807314,-6.7145053\PG=C01 [X(H18O25Si4Zr4)]\\@


 OLD HORSE! OLD HORSE! WHAT BROUGHT YOU HERE?
 FROM SACARAP' TO PORTLAND PIER
 I'VE CARTED STONE THIS MANY A YEAR;
 TILL, KILLED BY BLOWS AND SORE ABUSE,
 THEY SALTED ME DOWN FOR SAILORS' USE.
 THE SAILORS THEY DO ME DESPISE;
 THEY TURN ME OVER AND DAMN MY EYES;
 CUT OFF MY MEAT, AND SCRAPE MY BONES,
 AND PITCH ME OVER TO DAVY JONES.

    SAILORS' COMPLAINT ABOUT THE BEEF
    SERVED ON SHIPBOARD, CIRCA 1835.
 Job cpu time:       1 days 12 hours  5 minutes 26.9 seconds.
 Elapsed time:       0 days  2 hours 16 minutes  2.8 seconds.
 File lengths (MBytes):  RWF=    218 Int=      0 D2E=      0 Chk=     28 Scr=      1
 Normal termination of Gaussian 16 at Wed Jun 24 17:01:43 2020.
