 Entering Gaussian System, Link 0=g16
 Initial command:
 /opt/software/gaussian/g16.b01/l1.exe "/localscratch/sarashs.33453285.0/Gau-2154.inp" -scrdir="/localscratch/sarashs.33453285.0/"
 Entering Link 1 = /opt/software/gaussian/g16.b01/l1.exe PID=      2155.
  
 Copyright (c) 1988-2017, Gaussian, Inc.  All Rights Reserved.
  
 This is part of the Gaussian(R) 16 program.  It is based on
 the Gaussian(R) 09 system (copyright 2009, Gaussian, Inc.),
 the Gaussian(R) 03 system (copyright 2003, Gaussian, Inc.),
 the Gaussian(R) 98 system (copyright 1998, Gaussian, Inc.),
 the Gaussian(R) 94 system (copyright 1995, Gaussian, Inc.),
 the Gaussian 92(TM) system (copyright 1992, Gaussian, Inc.),
 the Gaussian 90(TM) system (copyright 1990, Gaussian, Inc.),
 the Gaussian 88(TM) system (copyright 1988, Gaussian, Inc.),
 the Gaussian 86(TM) system (copyright 1986, Carnegie Mellon
 University), and the Gaussian 82(TM) system (copyright 1983,
 Carnegie Mellon University). Gaussian is a federally registered
 trademark of Gaussian, Inc.
  
 This software contains proprietary and confidential information,
 including trade secrets, belonging to Gaussian, Inc.
  
 This software is provided under written license and may be
 used, copied, transmitted, or stored only in accord with that
 written license.
  
 The following legend is applicable only to US Government
 contracts under FAR:
  
                    RESTRICTED RIGHTS LEGEND
  
 Use, reproduction and disclosure by the US Government is
 subject to restrictions as set forth in subparagraphs (a)
 and (c) of the Commercial Computer Software - Restricted
 Rights clause in FAR 52.227-19.
  
 Gaussian, Inc.
 340 Quinnipiac St., Bldg. 40, Wallingford CT 06492
  
  
 ---------------------------------------------------------------
 Warning -- This program may not be used in any manner that
 competes with the business of Gaussian, Inc. or will provide
 assistance to any competitor of Gaussian, Inc.  The licensee
 of this program is prohibited from giving any competitor of
 Gaussian, Inc. access to this program.  By using this program,
 the user acknowledges that Gaussian, Inc. is engaged in the
 business of creating and licensing software in the field of
 computational chemistry and represents and warrants to the
 licensee that it is not a competitor of Gaussian, Inc. and that
 it will not use this program in any manner prohibited above.
 ---------------------------------------------------------------
  

 Cite this work as:
 Gaussian 16, Revision B.01,
 M. J. Frisch, G. W. Trucks, H. B. Schlegel, G. E. Scuseria, 
 M. A. Robb, J. R. Cheeseman, G. Scalmani, V. Barone, 
 G. A. Petersson, H. Nakatsuji, X. Li, M. Caricato, A. V. Marenich, 
 J. Bloino, B. G. Janesko, R. Gomperts, B. Mennucci, H. P. Hratchian, 
 J. V. Ortiz, A. F. Izmaylov, J. L. Sonnenberg, D. Williams-Young, 
 F. Ding, F. Lipparini, F. Egidi, J. Goings, B. Peng, A. Petrone, 
 T. Henderson, D. Ranasinghe, V. G. Zakrzewski, J. Gao, N. Rega, 
 G. Zheng, W. Liang, M. Hada, M. Ehara, K. Toyota, R. Fukuda, 
 J. Hasegawa, M. Ishida, T. Nakajima, Y. Honda, O. Kitao, H. Nakai, 
 T. Vreven, K. Throssell, J. A. Montgomery, Jr., J. E. Peralta, 
 F. Ogliaro, M. J. Bearpark, J. J. Heyd, E. N. Brothers, K. N. Kudin, 
 V. N. Staroverov, T. A. Keith, R. Kobayashi, J. Normand, 
 K. Raghavachari, A. P. Rendell, J. C. Burant, S. S. Iyengar, 
 J. Tomasi, M. Cossi, J. M. Millam, M. Klene, C. Adamo, R. Cammi, 
 J. W. Ochterski, R. L. Martin, K. Morokuma, O. Farkas, 
 J. B. Foresman, and D. J. Fox, Gaussian, Inc., Wallingford CT, 2016.
 
 ******************************************
 Gaussian 16:  ES64L-G16RevB.01 20-Dec-2017
                24-Jun-2020 
 ******************************************
 %NProcShared=16
 Will use up to   16 processors via shared memory.
 ------------------------------------------
 #n B3LYP/GEN PSEUDO=READ Opt(modredundant)
 ------------------------------------------
 1/18=120,19=15,26=3,38=1/1,3;
 2/9=110,12=2,17=6,18=5,40=1/2;
 3/5=7,11=2,16=1,17=8,25=1,30=1,71=1,74=-5/1,2,3;
 4//1;
 5/5=2,38=5/2;
 6/7=2,8=2,9=2,10=2,28=1/1;
 7//1,2,3,16;
 1/18=20,19=15,26=3/3(2);
 2/9=110/2;
 99//99;
 2/9=110/2;
 3/5=7,6=1,11=2,16=1,17=8,25=1,30=1,71=1,74=-5,82=7/1,2,3;
 4/5=5,16=3,69=1/1;
 5/5=2,38=5/2;
 7//1,2,3,16;
 1/18=20,19=15,26=3/3(-5);
 2/9=110/2;
 6/7=2,8=2,9=2,10=2,19=2,28=1/1;
 99/9=1/99;
 -----
 Title
 -----
 Symbolic Z-matrix:
 Charge =  0 Multiplicity = 1
 Si                   -2.76356   0.50373  -0.80236 
 O                    -2.64408  -0.06281   0.73154 
 O                    -3.71347   1.8573   -0.78988 
 O                    -3.46982  -0.65647  -1.71915 
 O                    -1.26704   0.87374  -1.30905 
 Zr                    0.64266   0.57559  -0.75333 
 Si                   -2.95182  -0.40071   2.29443 
 Si                   -5.29329   2.11319  -0.39088 
 Si                   -4.65193  -1.79724  -1.46558 
 O                     1.42074  -1.02352  -1.50413 
 Zr                    3.08134  -2.19859  -1.57186 
 O                     0.86698   0.24462   1.23076 
 Zr                    2.16734  -0.84892   2.23145 
 O                     1.84023   2.08882  -1.14807 
 Zr                    3.68618   2.71423  -0.76416 
 O                    -6.30259   1.76732  -1.65717 
 O                    -5.44687   3.68028   0.05984 
 O                    -5.76721   1.08545   0.81639 
 O                    -3.50601  -1.97299   2.26095 
 O                    -4.03994   0.60192   2.98173 
 O                    -1.51274  -0.31185   3.10045 
 O                    -4.9739   -2.52135  -2.90029 
 O                    -6.04082  -1.02047  -0.97357 
 O                    -4.21989  -2.88703  -0.34024 
 H                    -6.38886  -0.36717  -1.60281 
 H                    -4.21233  -2.86813  -3.37752 
 H                    -3.92943  -2.60256   0.54609 
 H                    -4.78107   0.84544   2.39047 
 H                    -6.04405   0.21773   0.45311 
 H                    -6.24075   2.34318  -2.42744 
 H                    -4.62851   4.12226   0.31086 
 H                    -0.83615   0.10482   2.53314 
 H                    -4.05643  -2.25627   2.99954 
 O                     3.27633  -2.64807  -3.47764 
 H                     3.88152  -2.35598  -4.16631 
 O                     4.62207  -1.06342  -1.22492 
 H                     4.81737  -0.30259  -0.64147 
 O                     3.02671  -4.07506  -0.79596 
 H                     3.11436  -4.88188  -1.31521 
 O                     4.50414   1.25758   0.3151 
 H                     4.43193   1.04309   1.26907 
 O                     4.69582   2.91089  -2.42704 
 H                     5.05284   3.52807  -3.07002 
 O                     3.58125   4.36695   0.26222 
 H                     3.10525   5.09228   0.67097 
 O                     2.79971  -2.2295    0.92916 
 H                     2.84693  -3.20476   0.86834 
 O                     3.70373   0.30844   2.79269 
 H                     4.03239   0.59051   3.65327 
 O                     1.20316  -1.56835   3.7544 
 H                     0.25203  -1.44743   3.9275 
 
 The following ModRedundant input section has been read:
 A       1       5       6 F                                                   
 

 GradGradGradGradGradGradGradGradGradGradGradGradGradGradGradGradGradGrad
 Berny optimization.
 Initialization pass.
                           ----------------------------
                           !    Initial Parameters    !
                           ! (Angstroms and Degrees)  !
 --------------------------                            --------------------------
 ! Name  Definition              Value          Derivative Info.                !
 --------------------------------------------------------------------------------
 ! R1    R(1,2)                  1.6395         estimate D2E/DX2                !
 ! R2    R(1,3)                  1.6537         estimate D2E/DX2                !
 ! R3    R(1,4)                  1.6387         estimate D2E/DX2                !
 ! R4    R(1,5)                  1.6227         estimate D2E/DX2                !
 ! R5    R(2,7)                  1.6283         estimate D2E/DX2                !
 ! R6    R(3,8)                  1.6494         estimate D2E/DX2                !
 ! R7    R(4,9)                  1.6622         estimate D2E/DX2                !
 ! R8    R(5,6)                  2.0111         estimate D2E/DX2                !
 ! R9    R(6,10)                 1.9304         estimate D2E/DX2                !
 ! R10   R(6,12)                 2.024          estimate D2E/DX2                !
 ! R11   R(6,14)                 1.9697         estimate D2E/DX2                !
 ! R12   R(7,19)                 1.6674         estimate D2E/DX2                !
 ! R13   R(7,20)                 1.6315         estimate D2E/DX2                !
 ! R14   R(7,21)                 1.6518         estimate D2E/DX2                !
 ! R15   R(8,16)                 1.6558         estimate D2E/DX2                !
 ! R16   R(8,17)                 1.6378         estimate D2E/DX2                !
 ! R17   R(8,18)                 1.6548         estimate D2E/DX2                !
 ! R18   R(9,22)                 1.639          estimate D2E/DX2                !
 ! R19   R(9,23)                 1.6657         estimate D2E/DX2                !
 ! R20   R(9,24)                 1.625          estimate D2E/DX2                !
 ! R21   R(10,11)                2.0354         estimate D2E/DX2                !
 ! R22   R(11,34)                1.9678         estimate D2E/DX2                !
 ! R23   R(11,36)                1.9449         estimate D2E/DX2                !
 ! R24   R(11,38)                2.0313         estimate D2E/DX2                !
 ! R25   R(12,13)                1.9718         estimate D2E/DX2                !
 ! R26   R(13,46)                2.0005         estimate D2E/DX2                !
 ! R27   R(13,48)                2.0037         estimate D2E/DX2                !
 ! R28   R(13,50)                1.9408         estimate D2E/DX2                !
 ! R29   R(14,15)                1.9865         estimate D2E/DX2                !
 ! R30   R(15,40)                1.9889         estimate D2E/DX2                !
 ! R31   R(15,42)                1.9553         estimate D2E/DX2                !
 ! R32   R(15,44)                1.9483         estimate D2E/DX2                !
 ! R33   R(16,30)                0.9637         estimate D2E/DX2                !
 ! R34   R(17,31)                0.9634         estimate D2E/DX2                !
 ! R35   R(18,29)                0.9806         estimate D2E/DX2                !
 ! R36   R(19,33)                0.9637         estimate D2E/DX2                !
 ! R37   R(20,28)                0.9789         estimate D2E/DX2                !
 ! R38   R(21,32)                0.9763         estimate D2E/DX2                !
 ! R39   R(22,26)                0.9633         estimate D2E/DX2                !
 ! R40   R(23,25)                0.9715         estimate D2E/DX2                !
 ! R41   R(24,27)                0.9751         estimate D2E/DX2                !
 ! R42   R(34,35)                0.9622         estimate D2E/DX2                !
 ! R43   R(36,37)                0.9785         estimate D2E/DX2                !
 ! R44   R(38,39)                0.9635         estimate D2E/DX2                !
 ! R45   R(40,41)                0.9804         estimate D2E/DX2                !
 ! R46   R(42,43)                0.9601         estimate D2E/DX2                !
 ! R47   R(44,45)                0.959          estimate D2E/DX2                !
 ! R48   R(46,47)                0.9783         estimate D2E/DX2                !
 ! R49   R(48,49)                0.9634         estimate D2E/DX2                !
 ! R50   R(50,51)                0.9743         estimate D2E/DX2                !
 ! A1    A(2,1,3)              108.5202         estimate D2E/DX2                !
 ! A2    A(2,1,4)              108.0696         estimate D2E/DX2                !
 ! A3    A(2,1,5)              107.6808         estimate D2E/DX2                !
 ! A4    A(3,1,4)              109.6434         estimate D2E/DX2                !
 ! A5    A(3,1,5)              110.2104         estimate D2E/DX2                !
 ! A6    A(4,1,5)              112.595          estimate D2E/DX2                !
 ! A7    A(1,2,7)              162.9195         estimate D2E/DX2                !
 ! A8    A(1,3,8)              132.766          estimate D2E/DX2                !
 ! A9    A(1,4,9)              134.9946         estimate D2E/DX2                !
 ! A10   A(1,5,6)              139.0805         Frozen                          !
 ! A11   A(5,6,10)             113.4584         estimate D2E/DX2                !
 ! A12   A(5,6,12)             113.6007         estimate D2E/DX2                !
 ! A13   A(5,6,14)             114.0826         estimate D2E/DX2                !
 ! A14   A(10,6,12)            101.6037         estimate D2E/DX2                !
 ! A15   A(10,6,14)            108.2644         estimate D2E/DX2                !
 ! A16   A(12,6,14)            104.7556         estimate D2E/DX2                !
 ! A17   A(2,7,19)             103.84           estimate D2E/DX2                !
 ! A18   A(2,7,20)             113.7575         estimate D2E/DX2                !
 ! A19   A(2,7,21)             107.0096         estimate D2E/DX2                !
 ! A20   A(19,7,20)            111.4863         estimate D2E/DX2                !
 ! A21   A(19,7,21)            110.4922         estimate D2E/DX2                !
 ! A22   A(20,7,21)            110.0253         estimate D2E/DX2                !
 ! A23   A(3,8,16)             111.4953         estimate D2E/DX2                !
 ! A24   A(3,8,17)             107.7477         estimate D2E/DX2                !
 ! A25   A(3,8,18)             110.7593         estimate D2E/DX2                !
 ! A26   A(16,8,17)            110.6802         estimate D2E/DX2                !
 ! A27   A(16,8,18)            104.6923         estimate D2E/DX2                !
 ! A28   A(17,8,18)            111.5071         estimate D2E/DX2                !
 ! A29   A(4,9,22)             108.021          estimate D2E/DX2                !
 ! A30   A(4,9,23)             108.5421         estimate D2E/DX2                !
 ! A31   A(4,9,24)             112.1363         estimate D2E/DX2                !
 ! A32   A(22,9,23)            107.505          estimate D2E/DX2                !
 ! A33   A(22,9,24)            111.2311         estimate D2E/DX2                !
 ! A34   A(23,9,24)            109.2613         estimate D2E/DX2                !
 ! A35   A(6,10,11)            145.0883         estimate D2E/DX2                !
 ! A36   A(10,11,34)           104.1784         estimate D2E/DX2                !
 ! A37   A(10,11,36)           107.6624         estimate D2E/DX2                !
 ! A38   A(10,11,38)           119.9111         estimate D2E/DX2                !
 ! A39   A(34,11,36)           103.1548         estimate D2E/DX2                !
 ! A40   A(34,11,38)            99.2995         estimate D2E/DX2                !
 ! A41   A(36,11,38)           119.4941         estimate D2E/DX2                !
 ! A42   A(6,12,13)            131.3966         estimate D2E/DX2                !
 ! A43   A(12,13,46)           105.1189         estimate D2E/DX2                !
 ! A44   A(12,13,48)           109.1156         estimate D2E/DX2                !
 ! A45   A(12,13,50)           106.0329         estimate D2E/DX2                !
 ! A46   A(46,13,48)           109.7903         estimate D2E/DX2                !
 ! A47   A(46,13,50)           114.3345         estimate D2E/DX2                !
 ! A48   A(48,13,50)           112.0395         estimate D2E/DX2                !
 ! A49   A(6,14,15)            140.185          estimate D2E/DX2                !
 ! A50   A(14,15,40)           104.8602         estimate D2E/DX2                !
 ! A51   A(14,15,42)           110.3124         estimate D2E/DX2                !
 ! A52   A(14,15,44)           108.5923         estimate D2E/DX2                !
 ! A53   A(40,15,42)           108.8318         estimate D2E/DX2                !
 ! A54   A(40,15,44)           110.9502         estimate D2E/DX2                !
 ! A55   A(42,15,44)           112.9861         estimate D2E/DX2                !
 ! A56   A(8,16,30)            116.5711         estimate D2E/DX2                !
 ! A57   A(8,17,31)            115.5324         estimate D2E/DX2                !
 ! A58   A(8,18,29)            111.1097         estimate D2E/DX2                !
 ! A59   A(7,19,33)            116.8474         estimate D2E/DX2                !
 ! A60   A(7,20,28)            113.7913         estimate D2E/DX2                !
 ! A61   A(7,21,32)            110.0697         estimate D2E/DX2                !
 ! A62   A(9,22,26)            115.9371         estimate D2E/DX2                !
 ! A63   A(9,23,25)            114.8968         estimate D2E/DX2                !
 ! A64   A(9,24,27)            120.8639         estimate D2E/DX2                !
 ! A65   A(11,34,35)           133.3273         estimate D2E/DX2                !
 ! A66   A(11,36,37)           135.9147         estimate D2E/DX2                !
 ! A67   A(11,38,39)           124.4219         estimate D2E/DX2                !
 ! A68   A(15,40,41)           131.1417         estimate D2E/DX2                !
 ! A69   A(15,42,43)           145.7111         estimate D2E/DX2                !
 ! A70   A(15,44,45)           153.2297         estimate D2E/DX2                !
 ! A71   A(13,46,47)           138.0492         estimate D2E/DX2                !
 ! A72   A(13,48,49)           132.9124         estimate D2E/DX2                !
 ! A73   A(13,50,51)           125.3385         estimate D2E/DX2                !
 ! D1    D(3,1,2,7)             26.3443         estimate D2E/DX2                !
 ! D2    D(4,1,2,7)            -92.4856         estimate D2E/DX2                !
 ! D3    D(5,1,2,7)            145.6313         estimate D2E/DX2                !
 ! D4    D(2,1,3,8)            -62.7632         estimate D2E/DX2                !
 ! D5    D(4,1,3,8)             55.0697         estimate D2E/DX2                !
 ! D6    D(5,1,3,8)            179.5501         estimate D2E/DX2                !
 ! D7    D(2,1,4,9)             35.4977         estimate D2E/DX2                !
 ! D8    D(3,1,4,9)            -82.6158         estimate D2E/DX2                !
 ! D9    D(5,1,4,9)            154.3011         estimate D2E/DX2                !
 ! D10   D(2,1,5,6)             12.8461         estimate D2E/DX2                !
 ! D11   D(3,1,5,6)            131.05           estimate D2E/DX2                !
 ! D12   D(4,1,5,6)           -106.1843         estimate D2E/DX2                !
 ! D13   D(1,2,7,19)           100.9483         estimate D2E/DX2                !
 ! D14   D(1,2,7,20)           -20.4241         estimate D2E/DX2                !
 ! D15   D(1,2,7,21)          -142.1534         estimate D2E/DX2                !
 ! D16   D(1,3,8,16)           -83.6614         estimate D2E/DX2                !
 ! D17   D(1,3,8,17)           154.7            estimate D2E/DX2                !
 ! D18   D(1,3,8,18)            32.4929         estimate D2E/DX2                !
 ! D19   D(1,4,9,22)           173.7129         estimate D2E/DX2                !
 ! D20   D(1,4,9,23)            57.4339         estimate D2E/DX2                !
 ! D21   D(1,4,9,24)           -63.3679         estimate D2E/DX2                !
 ! D22   D(1,5,6,10)            90.332          estimate D2E/DX2                !
 ! D23   D(1,5,6,12)           -25.064          estimate D2E/DX2                !
 ! D24   D(1,5,6,14)          -145.0455         estimate D2E/DX2                !
 ! D25   D(5,6,10,11)         -177.8677         estimate D2E/DX2                !
 ! D26   D(12,6,10,11)         -55.548          estimate D2E/DX2                !
 ! D27   D(14,6,10,11)          54.4247         estimate D2E/DX2                !
 ! D28   D(5,6,12,13)          148.1501         estimate D2E/DX2                !
 ! D29   D(10,6,12,13)          25.9284         estimate D2E/DX2                !
 ! D30   D(14,6,12,13)         -86.7113         estimate D2E/DX2                !
 ! D31   D(5,6,14,15)          169.9961         estimate D2E/DX2                !
 ! D32   D(10,6,14,15)         -62.6542         estimate D2E/DX2                !
 ! D33   D(12,6,14,15)          45.1617         estimate D2E/DX2                !
 ! D34   D(2,7,19,33)         -156.8425         estimate D2E/DX2                !
 ! D35   D(20,7,19,33)         -33.9627         estimate D2E/DX2                !
 ! D36   D(21,7,19,33)          88.7198         estimate D2E/DX2                !
 ! D37   D(2,7,20,28)           39.0047         estimate D2E/DX2                !
 ! D38   D(19,7,20,28)         -78.0052         estimate D2E/DX2                !
 ! D39   D(21,7,20,28)         159.0451         estimate D2E/DX2                !
 ! D40   D(2,7,21,32)           12.2859         estimate D2E/DX2                !
 ! D41   D(19,7,21,32)         124.7052         estimate D2E/DX2                !
 ! D42   D(20,7,21,32)        -111.7631         estimate D2E/DX2                !
 ! D43   D(3,8,16,30)          -66.936          estimate D2E/DX2                !
 ! D44   D(17,8,16,30)          52.9866         estimate D2E/DX2                !
 ! D45   D(18,8,16,30)         173.2574         estimate D2E/DX2                !
 ! D46   D(3,8,17,31)          -19.3558         estimate D2E/DX2                !
 ! D47   D(16,8,17,31)        -141.4996         estimate D2E/DX2                !
 ! D48   D(18,8,17,31)         102.3883         estimate D2E/DX2                !
 ! D49   D(3,8,18,29)          -84.4645         estimate D2E/DX2                !
 ! D50   D(16,8,18,29)          35.8337         estimate D2E/DX2                !
 ! D51   D(17,8,18,29)         155.5519         estimate D2E/DX2                !
 ! D52   D(4,9,22,26)           52.0376         estimate D2E/DX2                !
 ! D53   D(23,9,22,26)         168.99           estimate D2E/DX2                !
 ! D54   D(24,9,22,26)         -71.4318         estimate D2E/DX2                !
 ! D55   D(4,9,23,25)           59.2735         estimate D2E/DX2                !
 ! D56   D(22,9,23,25)         -57.3378         estimate D2E/DX2                !
 ! D57   D(24,9,23,25)        -178.1643         estimate D2E/DX2                !
 ! D58   D(4,9,24,27)           54.0597         estimate D2E/DX2                !
 ! D59   D(22,9,24,27)         175.1468         estimate D2E/DX2                !
 ! D60   D(23,9,24,27)         -66.3256         estimate D2E/DX2                !
 ! D61   D(6,10,11,34)        -136.8774         estimate D2E/DX2                !
 ! D62   D(6,10,11,36)         -27.8032         estimate D2E/DX2                !
 ! D63   D(6,10,11,38)         113.3905         estimate D2E/DX2                !
 ! D64   D(10,11,34,35)        105.9349         estimate D2E/DX2                !
 ! D65   D(36,11,34,35)         -6.4248         estimate D2E/DX2                !
 ! D66   D(38,11,34,35)       -129.8334         estimate D2E/DX2                !
 ! D67   D(10,11,36,37)         37.7976         estimate D2E/DX2                !
 ! D68   D(34,11,36,37)        147.5775         estimate D2E/DX2                !
 ! D69   D(38,11,36,37)       -103.5868         estimate D2E/DX2                !
 ! D70   D(10,11,38,39)        114.2542         estimate D2E/DX2                !
 ! D71   D(34,11,38,39)          1.8867         estimate D2E/DX2                !
 ! D72   D(36,11,38,39)       -109.0645         estimate D2E/DX2                !
 ! D73   D(6,12,13,46)         -23.7705         estimate D2E/DX2                !
 ! D74   D(6,12,13,48)          93.9283         estimate D2E/DX2                !
 ! D75   D(6,12,13,50)        -145.2202         estimate D2E/DX2                !
 ! D76   D(12,13,46,47)       -123.8163         estimate D2E/DX2                !
 ! D77   D(48,13,46,47)        118.9433         estimate D2E/DX2                !
 ! D78   D(50,13,46,47)         -7.9564         estimate D2E/DX2                !
 ! D79   D(12,13,48,49)        115.0449         estimate D2E/DX2                !
 ! D80   D(46,13,48,49)       -130.2415         estimate D2E/DX2                !
 ! D81   D(50,13,48,49)         -2.0624         estimate D2E/DX2                !
 ! D82   D(12,13,50,51)          3.8974         estimate D2E/DX2                !
 ! D83   D(46,13,50,51)       -111.4306         estimate D2E/DX2                !
 ! D84   D(48,13,50,51)        122.8393         estimate D2E/DX2                !
 ! D85   D(6,14,15,40)           2.4018         estimate D2E/DX2                !
 ! D86   D(6,14,15,42)         119.4231         estimate D2E/DX2                !
 ! D87   D(6,14,15,44)        -116.2546         estimate D2E/DX2                !
 ! D88   D(14,15,40,41)        -80.6702         estimate D2E/DX2                !
 ! D89   D(42,15,40,41)        161.2983         estimate D2E/DX2                !
 ! D90   D(44,15,40,41)         36.3822         estimate D2E/DX2                !
 ! D91   D(14,15,42,43)        104.4345         estimate D2E/DX2                !
 ! D92   D(40,15,42,43)       -141.035          estimate D2E/DX2                !
 ! D93   D(44,15,42,43)        -17.3222         estimate D2E/DX2                !
 ! D94   D(14,15,44,45)         -4.8197         estimate D2E/DX2                !
 ! D95   D(40,15,44,45)       -119.5615         estimate D2E/DX2                !
 ! D96   D(42,15,44,45)        117.9003         estimate D2E/DX2                !
 --------------------------------------------------------------------------------
 Trust Radius=3.00D-01 FncErr=1.00D-07 GrdErr=1.00D-06 EigMax=2.50D+02 EigMin=1.00D-04
 Number of steps in this run=    229 maximum allowed number of steps=    306.
 GradGradGradGradGradGradGradGradGradGradGradGradGradGradGradGradGradGrad

 Stoichiometry    H18O25Si4Zr4
 Framework group  C1[X(H18O25Si4Zr4)]
 Deg. of freedom   147
 Full point group                 C1      NOp   1
 Largest Abelian subgroup         C1      NOp   1
 Largest concise Abelian subgroup C1      NOp   1
                         Standard orientation:                         
 ---------------------------------------------------------------------
 Center     Atomic      Atomic             Coordinates (Angstroms)
 Number     Number       Type             X           Y           Z
 ---------------------------------------------------------------------
      1         14           0       -2.779915    0.504353   -0.763536
      2          8           0       -2.699284   -0.075747    0.767828
      3          8           0       -3.726985    1.859969   -0.762523
      4          8           0       -3.465927   -0.646206   -1.707449
      5          8           0       -1.270641    0.875264   -1.230153
      6         40           0        0.624223    0.567867   -0.630427
      7         14           0       -3.045972   -0.426474    2.319699
      8         14           0       -5.315571    2.116060   -0.400137
      9         14           0       -4.656306   -1.786382   -1.492889
     10          8           0        1.417103   -1.026475   -1.375864
     11         40           0        3.076380   -2.204770   -1.413135
     12          8           0        0.799118    0.219179    1.355600
     13         40           0        2.072235   -0.886020    2.378271
     14          8           0        1.834305    2.081676   -0.982479
     15         40           0        3.671601    2.699439   -0.548006
     16          8           0       -6.294241    1.783534   -1.693750
     17          8           0       -5.476849    3.679534    0.060345
     18          8           0       -5.821124    1.078991    0.786141
     19          8           0       -3.602493   -1.997112    2.258927
     20          8           0       -4.148501    0.572683    2.988854
     21          8           0       -1.626908   -0.347954    3.161486
     22          8           0       -4.944522   -2.497269   -2.941323
     23          8           0       -6.055201   -1.010682   -1.028300
     24          8           0       -4.254295   -2.886893   -0.366855
     25          1           0       -6.386325   -0.351141   -1.660153
     26          1           0       -4.172212   -2.841666   -3.402757
     27          1           0       -3.985059   -2.610798    0.528776
     28          1           0       -4.874393    0.823045    2.381758
     29          1           0       -6.090803    0.215101    0.408626
     30          1           0       -6.212314    2.365908   -2.457218
     31          1           0       -4.663960    4.117417    0.335191
     32          1           0       -0.935730    0.072047    2.614584
     33          1           0       -4.171457   -2.285508    2.981306
     34          8           0        3.317099   -2.638155   -3.317415
     35          1           0        3.939612   -2.341510   -3.988473
     36          8           0        4.610532   -1.076237   -1.018649
     37          1           0        4.793071   -0.320953   -0.423970
     38          8           0        2.998777   -4.087768   -0.655215
     39          1           0        3.097431   -4.890255   -1.179183
     40          8           0        4.459771    1.231585    0.538218
     41          1           0        4.363734    1.008997    1.488224
     42          8           0        4.722131    2.908168   -2.183866
     43          1           0        5.096114    3.530071   -2.812493
     44          8           0        3.545022    4.343434    0.489881
     45          1           0        3.060673    5.066296    0.893159
     46          8           0        2.733436   -2.256718    1.079868
     47          1           0        2.780074   -3.231521    1.011713
     48          8           0        3.596839    0.262854    2.987072
     49          1           0        3.904890    0.536684    3.857876
     50          8           0        1.069479   -1.616390    3.870799
     51          1           0        0.114648   -1.494765    4.021589
 ---------------------------------------------------------------------
 Rotational constants (GHZ):           0.0866770           0.0382789           0.0361958
 General basis read from cards:  (5D, 7F)
 ======================================================================================================
                                       Pseudopotential Parameters
 ======================================================================================================
  Center     Atomic      Valence      Angular      Power
  Number     Number     Electrons     Momentum     of R      Exponent        Coefficient   SO-Coeffient
 ======================================================================================================
    1         14
                                   No pseudopotential on this center.
    2          8
                                   No pseudopotential on this center.
    3          8
                                   No pseudopotential on this center.
    4          8
                                   No pseudopotential on this center.
    5          8
                                   No pseudopotential on this center.
    6         40           12
                                      F and up 
                                                     0      645.9321873       -0.04258430    0.00000000
                                                     1      134.7547401      -20.22224090    0.00000000
                                                     2       42.3074619     -101.86951720    0.00000000
                                                     2       12.0003227      -41.61957840    0.00000000
                                                     2        4.1260454       -4.69861600    0.00000000
                                      S - F
                                                     0      117.6251862        2.79105590    0.00000000
                                                     1       22.9646089       41.94894590    0.00000000
                                                     2        4.5225298       67.72718660    0.00000000
                                      P - F
                                                     0       47.1953145        4.99111440    0.00000000
                                                     1       48.0356033       20.71931720    0.00000000
                                                     2       19.4541456      195.58677580    0.00000000
                                                     2        4.0512875       48.28771760    0.00000000
                                      D - F
                                                     0       79.9073983        3.00492260    0.00000000
                                                     1       45.8263798       25.93779890    0.00000000
                                                     2       26.9903522      125.12449340    0.00000000
                                                     2        9.6835718       70.76340220    0.00000000
                                                     2        2.7995666       15.04928220    0.00000000
    7         14
                                   No pseudopotential on this center.
    8         14
                                   No pseudopotential on this center.
    9         14
                                   No pseudopotential on this center.
   10          8
                                   No pseudopotential on this center.
   11         40           12
                                      F and up 
                                                     0      645.9321873       -0.04258430    0.00000000
                                                     1      134.7547401      -20.22224090    0.00000000
                                                     2       42.3074619     -101.86951720    0.00000000
                                                     2       12.0003227      -41.61957840    0.00000000
                                                     2        4.1260454       -4.69861600    0.00000000
                                      S - F
                                                     0      117.6251862        2.79105590    0.00000000
                                                     1       22.9646089       41.94894590    0.00000000
                                                     2        4.5225298       67.72718660    0.00000000
                                      P - F
                                                     0       47.1953145        4.99111440    0.00000000
                                                     1       48.0356033       20.71931720    0.00000000
                                                     2       19.4541456      195.58677580    0.00000000
                                                     2        4.0512875       48.28771760    0.00000000
                                      D - F
                                                     0       79.9073983        3.00492260    0.00000000
                                                     1       45.8263798       25.93779890    0.00000000
                                                     2       26.9903522      125.12449340    0.00000000
                                                     2        9.6835718       70.76340220    0.00000000
                                                     2        2.7995666       15.04928220    0.00000000
   12          8
                                   No pseudopotential on this center.
   13         40           12
                                      F and up 
                                                     0      645.9321873       -0.04258430    0.00000000
                                                     1      134.7547401      -20.22224090    0.00000000
                                                     2       42.3074619     -101.86951720    0.00000000
                                                     2       12.0003227      -41.61957840    0.00000000
                                                     2        4.1260454       -4.69861600    0.00000000
                                      S - F
                                                     0      117.6251862        2.79105590    0.00000000
                                                     1       22.9646089       41.94894590    0.00000000
                                                     2        4.5225298       67.72718660    0.00000000
                                      P - F
                                                     0       47.1953145        4.99111440    0.00000000
                                                     1       48.0356033       20.71931720    0.00000000
                                                     2       19.4541456      195.58677580    0.00000000
                                                     2        4.0512875       48.28771760    0.00000000
                                      D - F
                                                     0       79.9073983        3.00492260    0.00000000
                                                     1       45.8263798       25.93779890    0.00000000
                                                     2       26.9903522      125.12449340    0.00000000
                                                     2        9.6835718       70.76340220    0.00000000
                                                     2        2.7995666       15.04928220    0.00000000
   14          8
                                   No pseudopotential on this center.
   15         40           12
                                      F and up 
                                                     0      645.9321873       -0.04258430    0.00000000
                                                     1      134.7547401      -20.22224090    0.00000000
                                                     2       42.3074619     -101.86951720    0.00000000
                                                     2       12.0003227      -41.61957840    0.00000000
                                                     2        4.1260454       -4.69861600    0.00000000
                                      S - F
                                                     0      117.6251862        2.79105590    0.00000000
                                                     1       22.9646089       41.94894590    0.00000000
                                                     2        4.5225298       67.72718660    0.00000000
                                      P - F
                                                     0       47.1953145        4.99111440    0.00000000
                                                     1       48.0356033       20.71931720    0.00000000
                                                     2       19.4541456      195.58677580    0.00000000
                                                     2        4.0512875       48.28771760    0.00000000
                                      D - F
                                                     0       79.9073983        3.00492260    0.00000000
                                                     1       45.8263798       25.93779890    0.00000000
                                                     2       26.9903522      125.12449340    0.00000000
                                                     2        9.6835718       70.76340220    0.00000000
                                                     2        2.7995666       15.04928220    0.00000000
   16          8
                                   No pseudopotential on this center.
   17          8
                                   No pseudopotential on this center.
   18          8
                                   No pseudopotential on this center.
   19          8
                                   No pseudopotential on this center.
   20          8
                                   No pseudopotential on this center.
   21          8
                                   No pseudopotential on this center.
   22          8
                                   No pseudopotential on this center.
   23          8
                                   No pseudopotential on this center.
   24          8
                                   No pseudopotential on this center.
   25          1
                                   No pseudopotential on this center.
   26          1
                                   No pseudopotential on this center.
   27          1
                                   No pseudopotential on this center.
   28          1
                                   No pseudopotential on this center.
   29          1
                                   No pseudopotential on this center.
   30          1
                                   No pseudopotential on this center.
   31          1
                                   No pseudopotential on this center.
   32          1
                                   No pseudopotential on this center.
   33          1
                                   No pseudopotential on this center.
   34          8
                                   No pseudopotential on this center.
   35          1
                                   No pseudopotential on this center.
   36          8
                                   No pseudopotential on this center.
   37          1
                                   No pseudopotential on this center.
   38          8
                                   No pseudopotential on this center.
   39          1
                                   No pseudopotential on this center.
   40          8
                                   No pseudopotential on this center.
   41          1
                                   No pseudopotential on this center.
   42          8
                                   No pseudopotential on this center.
   43          1
                                   No pseudopotential on this center.
   44          8
                                   No pseudopotential on this center.
   45          1
                                   No pseudopotential on this center.
   46          8
                                   No pseudopotential on this center.
   47          1
                                   No pseudopotential on this center.
   48          8
                                   No pseudopotential on this center.
   49          1
                                   No pseudopotential on this center.
   50          8
                                   No pseudopotential on this center.
   51          1
                                   No pseudopotential on this center.
 ======================================================================================================
 There are   637 symmetry adapted cartesian basis functions of A   symmetry.
 There are   600 symmetry adapted basis functions of A   symmetry.
   600 basis functions,  1230 primitive gaussians,   637 cartesian basis functions
   161 alpha electrons      161 beta electrons
       nuclear repulsion energy      5649.6914909175 Hartrees.
 NAtoms=   51 NActive=   51 NUniq=   51 SFac= 1.00D+00 NAtFMM=   60 NAOKFM=F Big=F
 Integral buffers will be    131072 words long.
 Raffenetti 2 integral format.
 Two-electron integral symmetry is turned on.
 One-electron integrals computed using PRISM.
   1 Symmetry operations used in ECPInt.
 ECPInt:  NShTT=   21321 NPrTT=  126439 LenC2=   15360 LenP2D=   51582.
 LDataN:  DoStor=T MaxTD1= 5 Len=  102
 Number of processors reduced to  12 by ecpmxn.
 NBasis=   600 RedAO= T EigKep=  2.64D-03  NBF=   600
 NBsUse=   600 1.00D-06 EigRej= -1.00D+00 NBFU=   600
 Defaulting to unpruned grid for atomic number  40.
 Defaulting to unpruned grid for atomic number  40.
 Defaulting to unpruned grid for atomic number  40.
 ExpMin= 2.43D-02 ExpMax= 1.61D+04 ExpMxC= 2.43D+03 IAcc=3 IRadAn=         5 AccDes= 0.00D+00
 Harris functional with IExCor=  402 and IRadAn=       5 diagonalized for initial guess.
 HarFok:  IExCor=  402 AccDes= 0.00D+00 IRadAn=         5 IDoV= 1 UseB2=F ITyADJ=14
 ICtDFT=  3500011 ScaDFX=  1.000000  1.000000  1.000000  1.000000
 Defaulting to unpruned grid for atomic number  40.
 FoFCou: FMM=F IPFlag=           0 FMFlag=      100000 FMFlg1=           0
         NFxFlg=           0 DoJE=T BraDBF=F KetDBF=T FulRan=T
         wScrn=  0.000000 ICntrl=       500 IOpCl=  0 I1Cent=   200000004 NGrid=           0
         NMat0=    1 NMatS0=      1 NMatT0=    0 NMatD0=    1 NMtDS0=    0 NMtDT0=    0
 Petite list used in FoFCou.
 Requested convergence on RMS density matrix=1.00D-08 within 128 cycles.
 Requested convergence on MAX density matrix=1.00D-06.
 Requested convergence on             energy=1.00D-06.
 No special actions if energy rises.
 Defaulting to unpruned grid for atomic number  40.
 Defaulting to unpruned grid for atomic number  40.
 Defaulting to unpruned grid for atomic number  40.
 Defaulting to unpruned grid for atomic number  40.
 Defaulting to unpruned grid for atomic number  40.
 Defaulting to unpruned grid for atomic number  40.
 Defaulting to unpruned grid for atomic number  40.
 Defaulting to unpruned grid for atomic number  40.
 Defaulting to unpruned grid for atomic number  40.
 Defaulting to unpruned grid for atomic number  40.
 Defaulting to unpruned grid for atomic number  40.
 Defaulting to unpruned grid for atomic number  40.
 Defaulting to unpruned grid for atomic number  40.
 Defaulting to unpruned grid for atomic number  40.
 Defaulting to unpruned grid for atomic number  40.
 Defaulting to unpruned grid for atomic number  40.
 SCF Done:  E(RB3LYP) =  -3237.56674142     A.U. after   17 cycles
            NFock= 17  Conv=0.50D-08     -V/T= 2.0473

 **********************************************************************

            Population analysis using the SCF Density.

 **********************************************************************

 Orbital symmetries:
       Occupied  (A) (A) (A) (A) (A) (A) (A) (A) (A) (A) (A) (A)
                 (A) (A) (A) (A) (A) (A) (A) (A) (A) (A) (A) (A)
                 (A) (A) (A) (A) (A) (A) (A) (A) (A) (A) (A) (A)
                 (A) (A) (A) (A) (A) (A) (A) (A) (A) (A) (A) (A)
                 (A) (A) (A) (A) (A) (A) (A) (A) (A) (A) (A) (A)
                 (A) (A) (A) (A) (A) (A) (A) (A) (A) (A) (A) (A)
                 (A) (A) (A) (A) (A) (A) (A) (A) (A) (A) (A) (A)
                 (A) (A) (A) (A) (A) (A) (A) (A) (A) (A) (A) (A)
                 (A) (A) (A) (A) (A) (A) (A) (A) (A) (A) (A) (A)
                 (A) (A) (A) (A) (A) (A) (A) (A) (A) (A) (A) (A)
                 (A) (A) (A) (A) (A) (A) (A) (A) (A) (A) (A) (A)
                 (A) (A) (A) (A) (A) (A) (A) (A) (A) (A) (A) (A)
                 (A) (A) (A) (A) (A) (A) (A) (A) (A) (A) (A) (A)
                 (A) (A) (A) (A) (A)
       Virtual   (A) (A) (A) (A) (A) (A) (A) (A) (A) (A) (A) (A)
                 (A) (A) (A) (A) (A) (A) (A) (A) (A) (A) (A) (A)
                 (A) (A) (A) (A) (A) (A) (A) (A) (A) (A) (A) (A)
                 (A) (A) (A) (A) (A) (A) (A) (A) (A) (A) (A) (A)
                 (A) (A) (A) (A) (A) (A) (A) (A) (A) (A) (A) (A)
                 (A) (A) (A) (A) (A) (A) (A) (A) (A) (A) (A) (A)
                 (A) (A) (A) (A) (A) (A) (A) (A) (A) (A) (A) (A)
                 (A) (A) (A) (A) (A) (A) (A) (A) (A) (A) (A) (A)
                 (A) (A) (A) (A) (A) (A) (A) (A) (A) (A) (A) (A)
                 (A) (A) (A) (A) (A) (A) (A) (A) (A) (A) (A) (A)
                 (A) (A) (A) (A) (A) (A) (A) (A) (A) (A) (A) (A)
                 (A) (A) (A) (A) (A) (A) (A) (A) (A) (A) (A) (A)
                 (A) (A) (A) (A) (A) (A) (A) (A) (A) (A) (A) (A)
                 (A) (A) (A) (A) (A) (A) (A) (A) (A) (A) (A) (A)
                 (A) (A) (A) (A) (A) (A) (A) (A) (A) (A) (A) (A)
                 (A) (A) (A) (A) (A) (A) (A) (A) (A) (A) (A) (A)
                 (A) (A) (A) (A) (A) (A) (A) (A) (A) (A) (A) (A)
                 (A) (A) (A) (A) (A) (A) (A) (A) (A) (A) (A) (A)
                 (A) (A) (A) (A) (A) (A) (A) (A) (A) (A) (A) (A)
                 (A) (A) (A) (A) (A) (A) (A) (A) (A) (A) (A) (A)
                 (A) (A) (A) (A) (A) (A) (A) (A) (A) (A) (A) (A)
                 (A) (A) (A) (A) (A) (A) (A) (A) (A) (A) (A) (A)
                 (A) (A) (A) (A) (A) (A) (A) (A) (A) (A) (A) (A)
                 (A) (A) (A) (A) (A) (A) (A) (A) (A) (A) (A) (A)
                 (A) (A) (A) (A) (A) (A) (A) (A) (A) (A) (A) (A)
                 (A) (A) (A) (A) (A) (A) (A) (A) (A) (A) (A) (A)
                 (A) (A) (A) (A) (A) (A) (A) (A) (A) (A) (A) (A)
                 (A) (A) (A) (A) (A) (A) (A) (A) (A) (A) (A) (A)
                 (A) (A) (A) (A) (A) (A) (A) (A) (A) (A) (A) (A)
                 (A) (A) (A) (A) (A) (A) (A) (A) (A) (A) (A) (A)
                 (A) (A) (A) (A) (A) (A) (A) (A) (A) (A) (A) (A)
                 (A) (A) (A) (A) (A) (A) (A) (A) (A) (A) (A) (A)
                 (A) (A) (A) (A) (A) (A) (A) (A) (A) (A) (A) (A)
                 (A) (A) (A) (A) (A) (A) (A) (A) (A) (A) (A) (A)
                 (A) (A) (A) (A) (A) (A) (A) (A) (A) (A) (A) (A)
                 (A) (A) (A) (A) (A) (A) (A) (A) (A) (A) (A) (A)
                 (A) (A) (A) (A) (A) (A) (A)
 The electronic state is 1-A.
 Alpha  occ. eigenvalues --  -66.22027 -66.21818 -66.21289 -66.20168 -19.17042
 Alpha  occ. eigenvalues --  -19.17015 -19.16442 -19.16332 -19.16175 -19.16112
 Alpha  occ. eigenvalues --  -19.16054 -19.15794 -19.15751 -19.15693 -19.15504
 Alpha  occ. eigenvalues --  -19.15258 -19.15057 -19.14664 -19.14543 -19.14278
 Alpha  occ. eigenvalues --  -19.14250 -19.14243 -19.14201 -19.14101 -19.13371
 Alpha  occ. eigenvalues --  -19.13158 -19.12580 -19.12142 -19.11640  -5.36050
 Alpha  occ. eigenvalues --   -5.35982  -5.35485  -5.34376  -3.72013  -3.72011
 Alpha  occ. eigenvalues --   -3.71990  -3.71959  -3.71942  -3.71876  -3.71548
 Alpha  occ. eigenvalues --   -3.71401  -3.71326  -3.70371  -3.70324  -3.70252
 Alpha  occ. eigenvalues --   -2.08333  -2.06903  -2.06802  -2.05087  -1.29404
 Alpha  occ. eigenvalues --   -1.28964  -1.28588  -1.27955  -1.27723  -1.27670
 Alpha  occ. eigenvalues --   -1.27171  -1.27120  -1.26720  -1.25731  -1.25479
 Alpha  occ. eigenvalues --   -1.25137  -1.05246  -1.04258  -1.03046  -1.01887
 Alpha  occ. eigenvalues --   -1.01392  -1.01134  -1.00881  -0.99726  -0.99402
 Alpha  occ. eigenvalues --   -0.98709  -0.98505  -0.98422  -0.97894  -0.97480
 Alpha  occ. eigenvalues --   -0.96705  -0.96634  -0.95477  -0.95001  -0.94969
 Alpha  occ. eigenvalues --   -0.93901  -0.93678  -0.92092  -0.91041  -0.89506
 Alpha  occ. eigenvalues --   -0.88424  -0.61605  -0.59546  -0.58769  -0.55827
 Alpha  occ. eigenvalues --   -0.54373  -0.53509  -0.52274  -0.52076  -0.51418
 Alpha  occ. eigenvalues --   -0.51408  -0.51094  -0.50980  -0.50747  -0.50122
 Alpha  occ. eigenvalues --   -0.50107  -0.49239  -0.48872  -0.47765  -0.46766
 Alpha  occ. eigenvalues --   -0.45628  -0.45550  -0.44804  -0.42767  -0.41982
 Alpha  occ. eigenvalues --   -0.41360  -0.41316  -0.40502  -0.40316  -0.40157
 Alpha  occ. eigenvalues --   -0.39659  -0.39484  -0.39160  -0.38945  -0.38418
 Alpha  occ. eigenvalues --   -0.37891  -0.37515  -0.37331  -0.37121  -0.36824
 Alpha  occ. eigenvalues --   -0.36640  -0.36134  -0.35897  -0.35702  -0.35594
 Alpha  occ. eigenvalues --   -0.35425  -0.35192  -0.35069  -0.34936  -0.34868
 Alpha  occ. eigenvalues --   -0.34642  -0.34368  -0.34357  -0.34129  -0.34074
 Alpha  occ. eigenvalues --   -0.33835  -0.33482  -0.33382  -0.33157  -0.33024
 Alpha  occ. eigenvalues --   -0.32855  -0.32555  -0.32497  -0.32234  -0.31928
 Alpha  occ. eigenvalues --   -0.31759  -0.31613  -0.31446  -0.31131  -0.30989
 Alpha  occ. eigenvalues --   -0.30801  -0.30720  -0.30202  -0.29523  -0.29147
 Alpha  occ. eigenvalues --   -0.28624
 Alpha virt. eigenvalues --   -0.05243  -0.04787  -0.04412  -0.03487  -0.02873
 Alpha virt. eigenvalues --   -0.02709  -0.01924  -0.01609  -0.01331  -0.01125
 Alpha virt. eigenvalues --   -0.00678  -0.00594  -0.00362   0.00036   0.00519
 Alpha virt. eigenvalues --    0.00651   0.00921   0.01335   0.01492   0.01811
 Alpha virt. eigenvalues --    0.02331   0.02470   0.02759   0.02954   0.03196
 Alpha virt. eigenvalues --    0.03737   0.04084   0.04180   0.05008   0.05379
 Alpha virt. eigenvalues --    0.05667   0.05845   0.06220   0.06558   0.07126
 Alpha virt. eigenvalues --    0.08114   0.08272   0.08703   0.09419   0.10235
 Alpha virt. eigenvalues --    0.10459   0.11114   0.11878   0.12400   0.12840
 Alpha virt. eigenvalues --    0.13464   0.13896   0.14585   0.14938   0.15186
 Alpha virt. eigenvalues --    0.15699   0.16232   0.16389   0.16591   0.16893
 Alpha virt. eigenvalues --    0.17514   0.17967   0.18088   0.18280   0.18640
 Alpha virt. eigenvalues --    0.19181   0.19402   0.19669   0.20191   0.20517
 Alpha virt. eigenvalues --    0.20934   0.21274   0.21505   0.22171   0.22198
 Alpha virt. eigenvalues --    0.22493   0.22758   0.22848   0.23352   0.24069
 Alpha virt. eigenvalues --    0.24181   0.24439   0.24589   0.25041   0.25628
 Alpha virt. eigenvalues --    0.25852   0.26600   0.26789   0.27424   0.27510
 Alpha virt. eigenvalues --    0.28221   0.28645   0.29307   0.29928   0.30082
 Alpha virt. eigenvalues --    0.30513   0.31054   0.31132   0.31978   0.32646
 Alpha virt. eigenvalues --    0.33169   0.33503   0.34101   0.34466   0.35197
 Alpha virt. eigenvalues --    0.35999   0.36633   0.36844   0.37403   0.37811
 Alpha virt. eigenvalues --    0.38385   0.39518   0.40762   0.41219   0.41753
 Alpha virt. eigenvalues --    0.42175   0.44522   0.45153   0.46490   0.46956
 Alpha virt. eigenvalues --    0.49303   0.49849   0.51992   0.55489   0.56448
 Alpha virt. eigenvalues --    0.58122   0.59615   0.60505   0.64649   0.66582
 Alpha virt. eigenvalues --    0.67071   0.76637   0.76859   0.78724   0.79579
 Alpha virt. eigenvalues --    0.80230   0.80919   0.81082   0.82123   0.83441
 Alpha virt. eigenvalues --    0.83880   0.84533   0.85257   0.85393   0.86157
 Alpha virt. eigenvalues --    0.87122   0.87512   0.88935   0.89629   0.90377
 Alpha virt. eigenvalues --    0.90552   0.91684   0.92190   0.92391   0.93215
 Alpha virt. eigenvalues --    0.93281   0.93934   0.94422   0.94887   0.95479
 Alpha virt. eigenvalues --    0.96308   0.96453   0.96598   0.97350   0.97436
 Alpha virt. eigenvalues --    0.97618   0.98002   0.98313   0.98542   0.99180
 Alpha virt. eigenvalues --    0.99316   0.99760   1.00327   1.00903   1.01140
 Alpha virt. eigenvalues --    1.02129   1.02547   1.03077   1.03246   1.03898
 Alpha virt. eigenvalues --    1.04668   1.05390   1.05854   1.06138   1.06503
 Alpha virt. eigenvalues --    1.07180   1.07427   1.08067   1.08667   1.08993
 Alpha virt. eigenvalues --    1.09423   1.09586   1.10229   1.10672   1.10960
 Alpha virt. eigenvalues --    1.11933   1.12381   1.13295   1.13469   1.14195
 Alpha virt. eigenvalues --    1.14426   1.15567   1.16138   1.16801   1.17031
 Alpha virt. eigenvalues --    1.17530   1.18068   1.18735   1.19057   1.19197
 Alpha virt. eigenvalues --    1.19532   1.20070   1.20657   1.21152   1.21526
 Alpha virt. eigenvalues --    1.21991   1.22602   1.22915   1.24027   1.24427
 Alpha virt. eigenvalues --    1.25639   1.26555   1.26794   1.27607   1.27819
 Alpha virt. eigenvalues --    1.29064   1.29633   1.31020   1.31262   1.32272
 Alpha virt. eigenvalues --    1.33839   1.34312   1.35353   1.36704   1.37827
 Alpha virt. eigenvalues --    1.42510   1.43250   1.44718   1.45369   1.47061
 Alpha virt. eigenvalues --    1.47835   1.49090   1.50219   1.50835   1.51071
 Alpha virt. eigenvalues --    1.51729   1.52606   1.53620   1.54008   1.54265
 Alpha virt. eigenvalues --    1.55199   1.55368   1.55783   1.55991   1.56378
 Alpha virt. eigenvalues --    1.56936   1.57581   1.57698   1.58305   1.58436
 Alpha virt. eigenvalues --    1.58625   1.59001   1.59150   1.59973   1.60231
 Alpha virt. eigenvalues --    1.60832   1.62004   1.62216   1.62404   1.62631
 Alpha virt. eigenvalues --    1.63263   1.63613   1.63900   1.64231   1.64562
 Alpha virt. eigenvalues --    1.65596   1.65731   1.66104   1.66790   1.67033
 Alpha virt. eigenvalues --    1.67491   1.67998   1.68711   1.70452   1.70688
 Alpha virt. eigenvalues --    1.71367   1.71548   1.71920   1.72556   1.72669
 Alpha virt. eigenvalues --    1.73330   1.73462   1.73826   1.74950   1.75276
 Alpha virt. eigenvalues --    1.75522   1.76371   1.77004   1.77604   1.77771
 Alpha virt. eigenvalues --    1.78139   1.78356   1.78642   1.78880   1.79299
 Alpha virt. eigenvalues --    1.79570   1.80472   1.80698   1.81138   1.81503
 Alpha virt. eigenvalues --    1.81597   1.82029   1.82314   1.82858   1.83041
 Alpha virt. eigenvalues --    1.83511   1.83777   1.84417   1.85116   1.85408
 Alpha virt. eigenvalues --    1.85702   1.86081   1.86341   1.86607   1.86879
 Alpha virt. eigenvalues --    1.86997   1.87393   1.87832   1.88356   1.88987
 Alpha virt. eigenvalues --    1.90101   1.90611   1.90919   1.91309   1.92565
 Alpha virt. eigenvalues --    1.92751   1.93231   1.94534   1.95137   1.97184
 Alpha virt. eigenvalues --    1.97475   1.98240   1.99375   2.01206   2.01467
 Alpha virt. eigenvalues --    2.04315   2.05592   2.09050   2.09319   2.11768
 Alpha virt. eigenvalues --    2.15027   2.18938   2.31509   2.33755   2.33916
 Alpha virt. eigenvalues --    2.34465   2.35018   2.35129   2.36182   2.36420
 Alpha virt. eigenvalues --    2.36777   2.37001   2.37718   2.38011   2.39689
 Alpha virt. eigenvalues --    2.39884   2.40642   2.41094   2.42481   2.44558
 Alpha virt. eigenvalues --    2.45071   2.46494   2.47959   2.49672   2.52263
 Alpha virt. eigenvalues --    2.55490   2.55895   2.58407   2.59033   2.59585
 Alpha virt. eigenvalues --    2.60105   2.60719   2.61007   2.61560   2.61866
 Alpha virt. eigenvalues --    2.61934   2.62153   2.62444   2.62764   2.62968
 Alpha virt. eigenvalues --    2.62988   2.63126   2.63513   2.63651   2.64153
 Alpha virt. eigenvalues --    2.64288   2.64615   2.65343   2.65539   2.65679
 Alpha virt. eigenvalues --    2.65722   2.65947   2.67561   2.68546   2.69229
 Alpha virt. eigenvalues --    2.69728   2.70473   2.70954   2.73008   2.73887
 Alpha virt. eigenvalues --    2.74046   2.74711   2.75366   2.76689   2.77223
 Alpha virt. eigenvalues --    2.77595   2.77781   2.81764   2.82601   2.84825
 Alpha virt. eigenvalues --    2.86786   2.93430   3.40433   3.40720   3.40977
 Alpha virt. eigenvalues --    3.41446   3.41993   3.43365   3.43901   3.45064
 Alpha virt. eigenvalues --    3.46047   3.46857   3.47236   3.47742   3.49153
 Alpha virt. eigenvalues --    3.49835   3.52132   3.53590   3.54942   3.55311
 Alpha virt. eigenvalues --    4.72470   6.22871   6.63298   7.78009
          Condensed to atoms (all electrons):
 Mulliken charges:
               1
     1  Si   1.295045
     2  O   -0.648724
     3  O   -0.650223
     4  O   -0.649444
     5  O   -0.756244
     6  Zr   1.611898
     7  Si   1.121021
     8  Si   1.162041
     9  Si   1.135582
    10  O   -0.820431
    11  Zr   1.494675
    12  O   -0.854553
    13  Zr   1.592927
    14  O   -0.827852
    15  Zr   1.550643
    16  O   -0.626885
    17  O   -0.574118
    18  O   -0.666357
    19  O   -0.626607
    20  O   -0.611097
    21  O   -0.635521
    22  O   -0.578379
    23  O   -0.653083
    24  O   -0.618588
    25  H    0.354986
    26  H    0.334160
    27  H    0.367259
    28  H    0.370202
    29  H    0.365480
    30  H    0.337856
    31  H    0.336637
    32  H    0.371971
    33  H    0.344112
    34  O   -0.695217
    35  H    0.332495
    36  O   -0.706935
    37  H    0.365628
    38  O   -0.749429
    39  H    0.331343
    40  O   -0.763678
    41  H    0.371808
    42  O   -0.694154
    43  H    0.334131
    44  O   -0.699202
    45  H    0.335331
    46  O   -0.762526
    47  H    0.380848
    48  O   -0.742231
    49  H    0.340385
    50  O   -0.690105
    51  H    0.363122
 Sum of Mulliken charges =  -0.00000
 Mulliken charges with hydrogens summed into heavy atoms:
               1
     1  Si   1.295045
     2  O   -0.648724
     3  O   -0.650223
     4  O   -0.649444
     5  O   -0.756244
     6  Zr   1.611898
     7  Si   1.121021
     8  Si   1.162041
     9  Si   1.135582
    10  O   -0.820431
    11  Zr   1.494675
    12  O   -0.854553
    13  Zr   1.592927
    14  O   -0.827852
    15  Zr   1.550643
    16  O   -0.289029
    17  O   -0.237481
    18  O   -0.300877
    19  O   -0.282495
    20  O   -0.240894
    21  O   -0.263550
    22  O   -0.244220
    23  O   -0.298097
    24  O   -0.251329
    34  O   -0.362722
    36  O   -0.341307
    38  O   -0.418086
    40  O   -0.391869
    42  O   -0.360023
    44  O   -0.363871
    46  O   -0.381678
    48  O   -0.401846
    50  O   -0.326984
 Electronic spatial extent (au):  <R**2>=          25304.3088
 Charge=             -0.0000 electrons
 Dipole moment (field-independent basis, Debye):
    X=              2.2951    Y=              4.4355    Z=              0.9845  Tot=              5.0902
 Quadrupole moment (field-independent basis, Debye-Ang):
   XX=           -295.4801   YY=           -258.0393   ZZ=           -261.2450
   XY=              3.1873   XZ=              8.0132   YZ=             -8.3230
 Traceless Quadrupole moment (field-independent basis, Debye-Ang):
   XX=            -23.8920   YY=             13.5489   ZZ=             10.3431
   XY=              3.1873   XZ=              8.0132   YZ=             -8.3230
 Octapole moment (field-independent basis, Debye-Ang**2):
  XXX=            330.4859  YYY=            103.4243  ZZZ=            -45.9360  XYY=            157.6502
  XXY=             61.3081  XXZ=            -21.4417  XZZ=            128.3814  YZZ=             12.1255
  YYZ=            -17.2344  XYZ=             60.0299
 Hexadecapole moment (field-independent basis, Debye-Ang**3):
 XXXX=         -23005.0120 YYYY=          -5710.5823 ZZZZ=          -4942.5835 XXXY=            152.6193
 XXXZ=             -4.6101 YYYX=             43.8036 YYYZ=             27.2420 ZZZX=             67.3258
 ZZZY=            -73.1928 XXYY=          -4703.9002 XXZZ=          -3873.6111 YYZZ=          -1737.5436
 XXYZ=           -521.6622 YYXZ=           -176.2634 ZZXY=            174.0638
 N-N= 5.649691490917D+03 E-N=-1.890006315262D+04  KE= 3.091289890893D+03
   1 Symmetry operations used in ECPInt.
 ECPInt:  NShTT=   21321 NPrTT=  126439 LenC2=   15360 LenP2D=   51582.
 LDataN:  DoStor=T MaxTD1= 6 Len=  172
 Number of processors reduced to  14 by ecpmxn.
 Calling FoFJK, ICntrl=      2127 FMM=F ISym2X=0 I1Cent= 0 IOpClX= 0 NMat=1 NMatS=1 NMatT=0.
 Defaulting to unpruned grid for atomic number  40.
 Defaulting to unpruned grid for atomic number  40.
 Defaulting to unpruned grid for atomic number  40.
 Defaulting to unpruned grid for atomic number  40.
 Defaulting to unpruned grid for atomic number  40.
 Defaulting to unpruned grid for atomic number  40.
 Defaulting to unpruned grid for atomic number  40.
 Defaulting to unpruned grid for atomic number  40.
 Defaulting to unpruned grid for atomic number  40.
 Defaulting to unpruned grid for atomic number  40.
 Defaulting to unpruned grid for atomic number  40.
 Defaulting to unpruned grid for atomic number  40.
 Defaulting to unpruned grid for atomic number  40.
 Defaulting to unpruned grid for atomic number  40.
 Defaulting to unpruned grid for atomic number  40.
 Defaulting to unpruned grid for atomic number  40.
 ***** Axes restored to original set *****
 -------------------------------------------------------------------
 Center     Atomic                   Forces (Hartrees/Bohr)
 Number     Number              X              Y              Z
 -------------------------------------------------------------------
      1       14           0.000703953   -0.000178859    0.000740317
      2        8          -0.000104592    0.000101905   -0.000123414
      3        8          -0.000022402    0.000041958   -0.000086686
      4        8          -0.000004649    0.000002380   -0.000098504
      5        8           0.000273102    0.000039910   -0.000268970
      6       40          -0.000798354   -0.000061172    0.000521222
      7       14           0.000268066   -0.000128526   -0.000360952
      8       14           0.000113280   -0.000084899    0.000037030
      9       14           0.000070767    0.000043188    0.000098097
     10        8           0.000189597   -0.000212450   -0.000063247
     11       40          -0.000104596    0.000168971   -0.000095086
     12        8           0.000146176   -0.000909843    0.000129391
     13       40          -0.001061149    0.002144125   -0.002455568
     14        8           0.000213523    0.000163729   -0.000011649
     15       40          -0.000172318   -0.000039915   -0.000027517
     16        8          -0.000033149    0.000006714   -0.000029080
     17        8          -0.000017503    0.000028595   -0.000000032
     18        8          -0.000037849    0.000023800   -0.000031494
     19        8          -0.000093635    0.000017134   -0.000029630
     20        8          -0.000013746    0.000024045    0.000051709
     21        8           0.004720882    0.000388458   -0.001578699
     22        8          -0.000010698   -0.000016510   -0.000039038
     23        8          -0.000040718   -0.000005401   -0.000008585
     24        8          -0.000029950   -0.000025091   -0.000057523
     25        1          -0.000006085   -0.000010554    0.000003840
     26        1          -0.000000819    0.000007611    0.000009051
     27        1           0.000035495    0.000040902    0.000054639
     28        1           0.000058243   -0.000032285    0.000009874
     29        1           0.000032087    0.000015438    0.000005540
     30        1           0.000002697   -0.000003476    0.000012150
     31        1           0.000003052   -0.000019127    0.000006364
     32        1          -0.001269174   -0.000909536    0.001591313
     33        1           0.000066726    0.000023761    0.000021827
     34        8           0.000002263   -0.000013304   -0.000006108
     35        1          -0.000001989    0.000002021    0.000003505
     36        8           0.000017862   -0.000018266    0.000030440
     37        1          -0.000013761    0.000018744   -0.000011836
     38        8          -0.000014299   -0.000041218    0.000056152
     39        1           0.000001168    0.000006186    0.000004288
     40        8           0.000056066   -0.000055451    0.000067234
     41        1           0.000012519    0.000033480   -0.000068076
     42        8           0.000025239    0.000016029   -0.000028354
     43        1          -0.000005734   -0.000006922    0.000007037
     44        8           0.000019844    0.000014700    0.000017532
     45        1          -0.000010878    0.000005819    0.000000440
     46        8          -0.000074463    0.000022086    0.000191078
     47        1           0.000035251   -0.000030920   -0.000067515
     48        8          -0.000077233   -0.000113447    0.000093017
     49        1           0.000037034    0.000039202   -0.000020822
     50        8          -0.004115087    0.000623347    0.000994891
     51        1           0.001029936   -0.001147066    0.000810405
 -------------------------------------------------------------------
 Cartesian Forces:  Max     0.004720882 RMS     0.000660293

 GradGradGradGradGradGradGradGradGradGradGradGradGradGradGradGradGradGrad
 Berny optimization.
 FormGI is forming the generalized inverse of G from B-inverse, IUseBI=4.
 Internal  Forces:  Max     0.030843402 RMS     0.003089224
 Search for a local minimum.
 Step number   1 out of a maximum of  229
 All quantities printed in internal units (Hartrees-Bohrs-Radians)
 Mixed Optimization -- RFO/linear search
 Second derivative matrix not updated -- first step.
 ITU=  0
     Eigenvalues ---    0.00230   0.00230   0.00230   0.00230   0.00230
     Eigenvalues ---    0.00230   0.00230   0.00230   0.00230   0.00230
     Eigenvalues ---    0.00230   0.00230   0.00230   0.00230   0.00230
     Eigenvalues ---    0.00230   0.03447   0.03470   0.03516   0.03601
     Eigenvalues ---    0.03614   0.03629   0.03654   0.03686   0.03816
     Eigenvalues ---    0.03823   0.03827   0.03839   0.03923   0.03964
     Eigenvalues ---    0.04008   0.04039   0.06239   0.08354   0.08564
     Eigenvalues ---    0.08974   0.09448   0.10123   0.10678   0.11232
     Eigenvalues ---    0.11369   0.11507   0.11595   0.11636   0.11773
     Eigenvalues ---    0.11825   0.11923   0.12003   0.12146   0.12566
     Eigenvalues ---    0.12661   0.12746   0.12781   0.12915   0.12948
     Eigenvalues ---    0.13420   0.16000   0.16000   0.16000   0.16000
     Eigenvalues ---    0.16000   0.16000   0.16000   0.16000   0.16000
     Eigenvalues ---    0.16000   0.16000   0.16000   0.16000   0.16000
     Eigenvalues ---    0.16000   0.16000   0.16000   0.16000   0.16475
     Eigenvalues ---    0.16652   0.16973   0.17555   0.17903   0.18060
     Eigenvalues ---    0.18629   0.18751   0.19259   0.19512   0.19625
     Eigenvalues ---    0.19663   0.19719   0.19732   0.19849   0.20192
     Eigenvalues ---    0.20247   0.20296   0.20320   0.20376   0.20393
     Eigenvalues ---    0.20422   0.20645   0.20651   0.20806   0.20824
     Eigenvalues ---    0.20868   0.21021   0.21050   0.21076   0.21270
     Eigenvalues ---    0.21906   0.25000   0.25000   0.25000   0.25000
     Eigenvalues ---    0.25000   0.25000   0.40115   0.40361   0.40848
     Eigenvalues ---    0.41777   0.41931   0.42098   0.42374   0.42741
     Eigenvalues ---    0.44274   0.44356   0.44406   0.44546   0.45586
     Eigenvalues ---    0.46106   0.46669   0.47064   0.51271   0.51298
     Eigenvalues ---    0.51607   0.51682   0.51717   0.52103   0.52343
     Eigenvalues ---    0.52511   0.53065   0.54681   0.54684   0.54735
     Eigenvalues ---    0.54744   0.54756   0.54764   0.55002   0.55451
     Eigenvalues ---    0.556811000.000001000.000001000.000001000.00000
     Eigenvalues --- 1000.000001000.000001000.000001000.000001000.00000
     Eigenvalues --- 1000.000001000.000001000.000001000.000001000.00000
     Eigenvalues --- 1000.000001000.000001000.000001000.000001000.00000
     Eigenvalues --- 1000.000001000.000001000.000001000.000001000.00000
     Eigenvalues --- 1000.000001000.000001000.000001000.000001000.00000
     Eigenvalues --- 1000.000001000.000001000.000001000.000001000.00000
     Eigenvalues --- 1000.000001000.000001000.000001000.000001000.00000
     Eigenvalues --- 1000.000001000.000001000.000001000.000001000.00000
     Eigenvalues --- 1000.000001000.000001000.000001000.000001000.00000
     Eigenvalues --- 1000.000001000.000001000.000001000.000001000.00000
     Eigenvalues --- 1000.000001000.000001000.000001000.000001000.00000
     Eigenvalues --- 1000.000001000.000001000.000001000.000001000.00000
     Eigenvalues --- 1000.000001000.000001000.000001000.000001000.00000
     Eigenvalues --- 1000.000001000.000001000.000001000.00000
 RFO step:  Lambda=-7.82595520D-03 EMin= 2.30000000D-03
 Linear search not attempted -- first point.
 Iteration  1 RMS(Cart)=  0.28676248 RMS(Int)=  0.00946232
 Iteration  2 RMS(Cart)=  0.07309651 RMS(Int)=  0.00047316
 Iteration  3 RMS(Cart)=  0.00116386 RMS(Int)=  0.00010001
 Iteration  4 RMS(Cart)=  0.00000055 RMS(Int)=  0.00010001
 Iteration  1 RMS(Cart)=  0.00000000 RMS(Int)=  0.00000000
 Variable       Old X    -DE/DX   Delta X   Delta X   Delta X     New X
                                 (Linear)    (Quad)   (Total)
    R1        3.09828   0.00005   0.00000   0.00011   0.00011   3.09840
    R2        3.12499  -0.00002   0.00000  -0.00004  -0.00004   3.12495
    R3        3.09671  -0.00001   0.00000  -0.00003  -0.00003   3.09669
    R4        3.06649  -0.00384   0.00000  -0.00803  -0.00803   3.05847
    R5        3.07712  -0.00086   0.00000  -0.00184  -0.00184   3.07529
    R6        3.11691  -0.00007   0.00000  -0.00015  -0.00015   3.11676
    R7        3.14118  -0.00003   0.00000  -0.00006  -0.00006   3.14111
    R8        3.80050  -0.00450   0.00000  -0.02453  -0.02453   3.77597
    R9        3.64784   0.00014   0.00000   0.00061   0.00061   3.64845
   R10        3.82476  -0.00087   0.00000  -0.00492  -0.00492   3.81984
   R11        3.72226   0.00019   0.00000   0.00095   0.00095   3.72321
   R12        3.15098  -0.00003   0.00000  -0.00007  -0.00007   3.15091
   R13        3.08301  -0.00001   0.00000  -0.00002  -0.00002   3.08299
   R14        3.12149   0.00299   0.00000   0.00692   0.00692   3.12841
   R15        3.12908   0.00003   0.00000   0.00007   0.00007   3.12915
   R16        3.09506   0.00001   0.00000   0.00003   0.00003   3.09509
   R17        3.12711  -0.00004   0.00000  -0.00010  -0.00010   3.12701
   R18        3.09730   0.00003   0.00000   0.00007   0.00007   3.09737
   R19        3.14766   0.00003   0.00000   0.00007   0.00007   3.14774
   R20        3.07084  -0.00001   0.00000  -0.00002  -0.00002   3.07082
   R21        3.84640  -0.00016   0.00000  -0.00094  -0.00094   3.84546
   R22        3.71851   0.00000   0.00000   0.00002   0.00002   3.71854
   R23        3.67542   0.00001   0.00000   0.00003   0.00003   3.67545
   R24        3.83858   0.00006   0.00000   0.00033   0.00033   3.83891
   R25        3.72623  -0.00387   0.00000  -0.01907  -0.01907   3.70716
   R26        3.78033  -0.00009   0.00000  -0.00046  -0.00046   3.77987
   R27        3.78652  -0.00005   0.00000  -0.00029  -0.00029   3.78623
   R28        3.66753   0.00314   0.00000   0.01425   0.01425   3.68178
   R29        3.75388  -0.00009   0.00000  -0.00044  -0.00044   3.75344
   R30        3.75846   0.00004   0.00000   0.00023   0.00023   3.75869
   R31        3.69499   0.00003   0.00000   0.00014   0.00014   3.69513
   R32        3.68179   0.00003   0.00000   0.00012   0.00012   3.68191
   R33        1.82117  -0.00001   0.00000  -0.00002  -0.00002   1.82114
   R34        1.82049  -0.00000   0.00000  -0.00001  -0.00001   1.82049
   R35        1.85304  -0.00003   0.00000  -0.00005  -0.00005   1.85299
   R36        1.82114  -0.00003   0.00000  -0.00005  -0.00005   1.82109
   R37        1.84977  -0.00006   0.00000  -0.00011  -0.00011   1.84966
   R38        1.84500  -0.00219   0.00000  -0.00415  -0.00415   1.84086
   R39        1.82042  -0.00001   0.00000  -0.00001  -0.00001   1.82040
   R40        1.83593  -0.00001   0.00000  -0.00001  -0.00001   1.83592
   R41        1.84272   0.00007   0.00000   0.00014   0.00014   1.84286
   R42        1.81830  -0.00000   0.00000  -0.00001  -0.00001   1.81830
   R43        1.84905   0.00000   0.00000   0.00001   0.00001   1.84906
   R44        1.82068  -0.00001   0.00000  -0.00001  -0.00001   1.82067
   R45        1.85278  -0.00007   0.00000  -0.00014  -0.00014   1.85264
   R46        1.81433  -0.00001   0.00000  -0.00002  -0.00002   1.81431
   R47        1.81232   0.00001   0.00000   0.00002   0.00002   1.81234
   R48        1.84871   0.00004   0.00000   0.00007   0.00007   1.84878
   R49        1.82060   0.00001   0.00000   0.00001   0.00001   1.82061
   R50        1.84113  -0.00100   0.00000  -0.00188  -0.00188   1.83925
    A1        1.89403   0.00520   0.00000   0.02555   0.02548   1.91952
    A2        1.88617   0.00188   0.00000   0.00638   0.00612   1.89229
    A3        1.87938  -0.01179   0.00000  -0.07060  -0.07051   1.80888
    A4        1.91364  -0.00170   0.00000   0.00752   0.00710   1.92074
    A5        1.92354   0.00247   0.00000   0.01341   0.01338   1.93691
    A6        1.96515   0.00390   0.00000   0.01689   0.01649   1.98164
    A7        2.84348   0.01475   0.00000   0.05719   0.05719   2.90067
    A8        2.31720  -0.00005   0.00000  -0.00018  -0.00018   2.31702
    A9        2.35610  -0.00021   0.00000  -0.00080  -0.00080   2.35530
   A10        2.42741  -0.03084   0.00000   0.00000   0.00000   2.42741
   A11        1.98022   0.00210   0.00000   0.01340   0.01280   1.99302
   A12        1.98271  -0.01276   0.00000  -0.08416  -0.08403   1.89868
   A13        1.99112   0.00416   0.00000   0.02354   0.02306   2.01418
   A14        1.77332   0.00443   0.00000   0.01741   0.01713   1.79045
   A15        1.88957  -0.00173   0.00000   0.01409   0.01344   1.90301
   A16        1.82833   0.00404   0.00000   0.01685   0.01674   1.84507
   A17        1.81235   0.00032   0.00000   0.00036   0.00034   1.81269
   A18        1.98544   0.00075   0.00000   0.00457   0.00458   1.99002
   A19        1.86767  -0.00182   0.00000  -0.01067  -0.01068   1.85699
   A20        1.94580  -0.00028   0.00000   0.00075   0.00074   1.94654
   A21        1.92845  -0.00030   0.00000  -0.00240  -0.00242   1.92604
   A22        1.92030   0.00120   0.00000   0.00642   0.00643   1.92673
   A23        1.94596   0.00000   0.00000   0.00003   0.00003   1.94599
   A24        1.88055   0.00000   0.00000   0.00001   0.00001   1.88056
   A25        1.93311   0.00002   0.00000   0.00013   0.00013   1.93325
   A26        1.93173  -0.00001   0.00000  -0.00007  -0.00007   1.93166
   A27        1.82723  -0.00000   0.00000  -0.00001  -0.00001   1.82721
   A28        1.94617  -0.00001   0.00000  -0.00009  -0.00009   1.94608
   A29        1.88532  -0.00000   0.00000  -0.00000  -0.00000   1.88532
   A30        1.89442   0.00006   0.00000   0.00034   0.00034   1.89476
   A31        1.95715  -0.00005   0.00000  -0.00026  -0.00026   1.95689
   A32        1.87632  -0.00003   0.00000  -0.00012  -0.00012   1.87620
   A33        1.94135   0.00003   0.00000   0.00008   0.00008   1.94143
   A34        1.90697  -0.00001   0.00000  -0.00003  -0.00003   1.90694
   A35        2.53227  -0.00013   0.00000  -0.00051  -0.00051   2.53176
   A36        1.81826   0.00004   0.00000   0.00038   0.00038   1.81864
   A37        1.87906   0.00000   0.00000  -0.00013  -0.00013   1.87893
   A38        2.09284  -0.00004   0.00000  -0.00035  -0.00035   2.09249
   A39        1.80039   0.00001   0.00000   0.00024   0.00024   1.80063
   A40        1.73310   0.00002   0.00000   0.00029   0.00029   1.73340
   A41        2.08557  -0.00000   0.00000  -0.00014  -0.00014   2.08542
   A42        2.29330   0.01047   0.00000   0.04060   0.04060   2.33390
   A43        1.83467   0.00069   0.00000   0.00292   0.00291   1.83758
   A44        1.90443   0.00057   0.00000   0.00294   0.00294   1.90736
   A45        1.85062  -0.00187   0.00000  -0.01264  -0.01264   1.83798
   A46        1.91620  -0.00025   0.00000   0.00231   0.00230   1.91850
   A47        1.99551   0.00017   0.00000   0.00064   0.00063   1.99615
   A48        1.95546   0.00066   0.00000   0.00338   0.00337   1.95883
   A49        2.44669   0.00018   0.00000   0.00071   0.00071   2.44740
   A50        1.83016   0.00008   0.00000   0.00059   0.00059   1.83074
   A51        1.92532  -0.00003   0.00000  -0.00014  -0.00014   1.92517
   A52        1.89529  -0.00001   0.00000   0.00004   0.00004   1.89533
   A53        1.89947  -0.00004   0.00000  -0.00028  -0.00028   1.89920
   A54        1.93645  -0.00001   0.00000  -0.00000  -0.00000   1.93644
   A55        1.97198   0.00001   0.00000  -0.00014  -0.00014   1.97184
   A56        2.03455  -0.00001   0.00000  -0.00006  -0.00006   2.03449
   A57        2.01642  -0.00003   0.00000  -0.00018  -0.00018   2.01624
   A58        1.93923  -0.00001   0.00000  -0.00007  -0.00007   1.93916
   A59        2.03937  -0.00007   0.00000  -0.00040  -0.00040   2.03897
   A60        1.98603  -0.00006   0.00000  -0.00037  -0.00037   1.98566
   A61        1.92108   0.00073   0.00000   0.00438   0.00438   1.92546
   A62        2.02348  -0.00002   0.00000  -0.00009  -0.00009   2.02339
[...]
     49          1           0        3.773470    0.535202    3.894694
     50          8           0        0.962670   -1.647846    3.822149
     51          1           0        0.005199   -1.524432    3.953521
 ---------------------------------------------------------------------
 Rotational constants (GHZ):           0.0868514           0.0386115           0.0363365

 **********************************************************************

            Population analysis using the SCF Density.

 **********************************************************************

 Orbital symmetries:
       Occupied  (A) (A) (A) (A) (A) (A) (A) (A) (A) (A) (A) (A)
                 (A) (A) (A) (A) (A) (A) (A) (A) (A) (A) (A) (A)
                 (A) (A) (A) (A) (A) (A) (A) (A) (A) (A) (A) (A)
                 (A) (A) (A) (A) (A) (A) (A) (A) (A) (A) (A) (A)
                 (A) (A) (A) (A) (A) (A) (A) (A) (A) (A) (A) (A)
                 (A) (A) (A) (A) (A) (A) (A) (A) (A) (A) (A) (A)
                 (A) (A) (A) (A) (A) (A) (A) (A) (A) (A) (A) (A)
                 (A) (A) (A) (A) (A) (A) (A) (A) (A) (A) (A) (A)
                 (A) (A) (A) (A) (A) (A) (A) (A) (A) (A) (A) (A)
                 (A) (A) (A) (A) (A) (A) (A) (A) (A) (A) (A) (A)
                 (A) (A) (A) (A) (A) (A) (A) (A) (A) (A) (A) (A)
                 (A) (A) (A) (A) (A) (A) (A) (A) (A) (A) (A) (A)
                 (A) (A) (A) (A) (A) (A) (A) (A) (A) (A) (A) (A)
                 (A) (A) (A) (A) (A)
       Virtual   (A) (A) (A) (A) (A) (A) (A) (A) (A) (A) (A) (A)
                 (A) (A) (A) (A) (A) (A) (A) (A) (A) (A) (A) (A)
                 (A) (A) (A) (A) (A) (A) (A) (A) (A) (A) (A) (A)
                 (A) (A) (A) (A) (A) (A) (A) (A) (A) (A) (A) (A)
                 (A) (A) (A) (A) (A) (A) (A) (A) (A) (A) (A) (A)
                 (A) (A) (A) (A) (A) (A) (A) (A) (A) (A) (A) (A)
                 (A) (A) (A) (A) (A) (A) (A) (A) (A) (A) (A) (A)
                 (A) (A) (A) (A) (A) (A) (A) (A) (A) (A) (A) (A)
                 (A) (A) (A) (A) (A) (A) (A) (A) (A) (A) (A) (A)
                 (A) (A) (A) (A) (A) (A) (A) (A) (A) (A) (A) (A)
                 (A) (A) (A) (A) (A) (A) (A) (A) (A) (A) (A) (A)
                 (A) (A) (A) (A) (A) (A) (A) (A) (A) (A) (A) (A)
                 (A) (A) (A) (A) (A) (A) (A) (A) (A) (A) (A) (A)
                 (A) (A) (A) (A) (A) (A) (A) (A) (A) (A) (A) (A)
                 (A) (A) (A) (A) (A) (A) (A) (A) (A) (A) (A) (A)
                 (A) (A) (A) (A) (A) (A) (A) (A) (A) (A) (A) (A)
                 (A) (A) (A) (A) (A) (A) (A) (A) (A) (A) (A) (A)
                 (A) (A) (A) (A) (A) (A) (A) (A) (A) (A) (A) (A)
                 (A) (A) (A) (A) (A) (A) (A) (A) (A) (A) (A) (A)
                 (A) (A) (A) (A) (A) (A) (A) (A) (A) (A) (A) (A)
                 (A) (A) (A) (A) (A) (A) (A) (A) (A) (A) (A) (A)
                 (A) (A) (A) (A) (A) (A) (A) (A) (A) (A) (A) (A)
                 (A) (A) (A) (A) (A) (A) (A) (A) (A) (A) (A) (A)
                 (A) (A) (A) (A) (A) (A) (A) (A) (A) (A) (A) (A)
                 (A) (A) (A) (A) (A) (A) (A) (A) (A) (A) (A) (A)
                 (A) (A) (A) (A) (A) (A) (A) (A) (A) (A) (A) (A)
                 (A) (A) (A) (A) (A) (A) (A) (A) (A) (A) (A) (A)
                 (A) (A) (A) (A) (A) (A) (A) (A) (A) (A) (A) (A)
                 (A) (A) (A) (A) (A) (A) (A) (A) (A) (A) (A) (A)
                 (A) (A) (A) (A) (A) (A) (A) (A) (A) (A) (A) (A)
                 (A) (A) (A) (A) (A) (A) (A) (A) (A) (A) (A) (A)
                 (A) (A) (A) (A) (A) (A) (A) (A) (A) (A) (A) (A)
                 (A) (A) (A) (A) (A) (A) (A) (A) (A) (A) (A) (A)
                 (A) (A) (A) (A) (A) (A) (A) (A) (A) (A) (A) (A)
                 (A) (A) (A) (A) (A) (A) (A) (A) (A) (A) (A) (A)
                 (A) (A) (A) (A) (A) (A) (A) (A) (A) (A) (A) (A)
                 (A) (A) (A) (A) (A) (A) (A)
 The electronic state is 1-A.
 Alpha  occ. eigenvalues --  -66.22071 -66.21840 -66.21347 -66.20199 -19.17087
 Alpha  occ. eigenvalues --  -19.17033 -19.16408 -19.16361 -19.16133 -19.16023
 Alpha  occ. eigenvalues --  -19.15889 -19.15823 -19.15728 -19.15719 -19.15538
 Alpha  occ. eigenvalues --  -19.15283 -19.15087 -19.14695 -19.14579 -19.14302
 Alpha  occ. eigenvalues --  -19.14298 -19.14282 -19.14273 -19.14127 -19.13400
 Alpha  occ. eigenvalues --  -19.13194 -19.12581 -19.12130 -19.11640  -5.36073
 Alpha  occ. eigenvalues --   -5.36030  -5.35540  -5.34408  -3.72059  -3.72036
 Alpha  occ. eigenvalues --   -3.72012  -3.71987  -3.71981  -3.71923  -3.71604
 Alpha  occ. eigenvalues --   -3.71456  -3.71382  -3.70401  -3.70356  -3.70283
 Alpha  occ. eigenvalues --   -2.08280  -2.06956  -2.06827  -2.05089  -1.29337
 Alpha  occ. eigenvalues --   -1.28946  -1.28537  -1.27994  -1.27768  -1.27704
 Alpha  occ. eigenvalues --   -1.27196  -1.27177  -1.26752  -1.25732  -1.25479
 Alpha  occ. eigenvalues --   -1.25144  -1.05282  -1.04315  -1.03079  -1.01927
 Alpha  occ. eigenvalues --   -1.01430  -1.01157  -1.00964  -0.99757  -0.99479
 Alpha  occ. eigenvalues --   -0.98755  -0.98539  -0.98354  -0.97933  -0.97439
 Alpha  occ. eigenvalues --   -0.96709  -0.96344  -0.95498  -0.95086  -0.94986
 Alpha  occ. eigenvalues --   -0.93896  -0.93672  -0.92094  -0.91230  -0.89541
 Alpha  occ. eigenvalues --   -0.88451  -0.61678  -0.59588  -0.58796  -0.55894
 Alpha  occ. eigenvalues --   -0.54389  -0.53551  -0.52307  -0.52130  -0.51460
 Alpha  occ. eigenvalues --   -0.51384  -0.51068  -0.51011  -0.50755  -0.50196
 Alpha  occ. eigenvalues --   -0.50146  -0.49106  -0.48890  -0.47754  -0.46764
 Alpha  occ. eigenvalues --   -0.45693  -0.45596  -0.44790  -0.42819  -0.42021
 Alpha  occ. eigenvalues --   -0.41493  -0.41367  -0.40589  -0.40423  -0.40208
 Alpha  occ. eigenvalues --   -0.39698  -0.39544  -0.39197  -0.38978  -0.38436
 Alpha  occ. eigenvalues --   -0.37872  -0.37524  -0.37354  -0.37180  -0.36873
 Alpha  occ. eigenvalues --   -0.36670  -0.36156  -0.35964  -0.35751  -0.35629
 Alpha  occ. eigenvalues --   -0.35438  -0.35209  -0.35107  -0.34936  -0.34891
 Alpha  occ. eigenvalues --   -0.34657  -0.34306  -0.34247  -0.34094  -0.33997
 Alpha  occ. eigenvalues --   -0.33798  -0.33478  -0.33407  -0.33172  -0.33044
 Alpha  occ. eigenvalues --   -0.32873  -0.32592  -0.32535  -0.32243  -0.31966
 Alpha  occ. eigenvalues --   -0.31804  -0.31638  -0.31488  -0.31151  -0.31018
 Alpha  occ. eigenvalues --   -0.30820  -0.30740  -0.30214  -0.29533  -0.29141
 Alpha  occ. eigenvalues --   -0.28613
 Alpha virt. eigenvalues --   -0.05241  -0.04764  -0.04434  -0.03434  -0.02875
 Alpha virt. eigenvalues --   -0.02704  -0.01918  -0.01611  -0.01337  -0.01084
 Alpha virt. eigenvalues --   -0.00662  -0.00613  -0.00376   0.00039   0.00510
 Alpha virt. eigenvalues --    0.00648   0.00904   0.01399   0.01517   0.01793
 Alpha virt. eigenvalues --    0.02306   0.02461   0.02763   0.02924   0.03231
 Alpha virt. eigenvalues --    0.03762   0.04092   0.04187   0.04999   0.05425
 Alpha virt. eigenvalues --    0.05775   0.05835   0.06220   0.06526   0.07110
 Alpha virt. eigenvalues --    0.08102   0.08301   0.08684   0.09589   0.10227
 Alpha virt. eigenvalues --    0.10491   0.11208   0.11775   0.12449   0.12835
 Alpha virt. eigenvalues --    0.13444   0.13912   0.14585   0.15029   0.15255
 Alpha virt. eigenvalues --    0.15855   0.16279   0.16529   0.16671   0.16949
 Alpha virt. eigenvalues --    0.17544   0.17973   0.18144   0.18440   0.18685
 Alpha virt. eigenvalues --    0.19195   0.19413   0.19728   0.20230   0.20769
 Alpha virt. eigenvalues --    0.20902   0.21255   0.21502   0.22159   0.22243
 Alpha virt. eigenvalues --    0.22526   0.22817   0.22899   0.23308   0.24091
 Alpha virt. eigenvalues --    0.24209   0.24446   0.24709   0.25023   0.25635
 Alpha virt. eigenvalues --    0.25912   0.26588   0.26773   0.27472   0.27595
 Alpha virt. eigenvalues --    0.28318   0.28731   0.29275   0.29982   0.30040
 Alpha virt. eigenvalues --    0.30430   0.31140   0.31220   0.32006   0.32574
 Alpha virt. eigenvalues --    0.33342   0.33655   0.34119   0.34590   0.35205
 Alpha virt. eigenvalues --    0.35970   0.36579   0.36868   0.37470   0.37822
 Alpha virt. eigenvalues --    0.38324   0.39528   0.40771   0.41252   0.41864
 Alpha virt. eigenvalues --    0.42213   0.44558   0.44962   0.46488   0.46948
 Alpha virt. eigenvalues --    0.49261   0.49938   0.51994   0.55347   0.56394
 Alpha virt. eigenvalues --    0.58068   0.59597   0.60500   0.64712   0.66470
 Alpha virt. eigenvalues --    0.67199   0.76572   0.76869   0.78767   0.79649
 Alpha virt. eigenvalues --    0.80215   0.80963   0.81151   0.82121   0.83663
 Alpha virt. eigenvalues --    0.83742   0.84029   0.84823   0.85915   0.86741
 Alpha virt. eigenvalues --    0.86873   0.87944   0.88939   0.89580   0.90326
 Alpha virt. eigenvalues --    0.90691   0.91775   0.92172   0.92395   0.93193
 Alpha virt. eigenvalues --    0.93274   0.94036   0.94413   0.94874   0.95538
 Alpha virt. eigenvalues --    0.96364   0.96493   0.96782   0.97424   0.97496
 Alpha virt. eigenvalues --    0.97655   0.98081   0.98339   0.98643   0.99267
 Alpha virt. eigenvalues --    0.99359   1.00047   1.00658   1.00900   1.01175
 Alpha virt. eigenvalues --    1.02389   1.02874   1.03239   1.03326   1.03914
 Alpha virt. eigenvalues --    1.04726   1.05581   1.05846   1.06345   1.06517
 Alpha virt. eigenvalues --    1.07299   1.07512   1.08141   1.08711   1.08940
 Alpha virt. eigenvalues --    1.09445   1.09749   1.10272   1.10569   1.11018
 Alpha virt. eigenvalues --    1.11982   1.12586   1.13324   1.13803   1.14259
 Alpha virt. eigenvalues --    1.14803   1.15754   1.16223   1.16583   1.17160
 Alpha virt. eigenvalues --    1.17523   1.18144   1.18875   1.19034   1.19215
 Alpha virt. eigenvalues --    1.19593   1.19947   1.20901   1.21079   1.21598
 Alpha virt. eigenvalues --    1.21863   1.22470   1.23041   1.23906   1.24412
 Alpha virt. eigenvalues --    1.25706   1.26506   1.26808   1.27586   1.27945
 Alpha virt. eigenvalues --    1.28953   1.29640   1.30787   1.31052   1.32140
 Alpha virt. eigenvalues --    1.33848   1.34234   1.35337   1.36568   1.37826
 Alpha virt. eigenvalues --    1.42518   1.43302   1.44618   1.45388   1.47112
 Alpha virt. eigenvalues --    1.47772   1.49090   1.50208   1.50868   1.51199
 Alpha virt. eigenvalues --    1.51905   1.52625   1.53697   1.53863   1.54350
 Alpha virt. eigenvalues --    1.55114   1.55526   1.55853   1.56049   1.56673
 Alpha virt. eigenvalues --    1.56923   1.57480   1.57764   1.58327   1.58445
 Alpha virt. eigenvalues --    1.58929   1.59018   1.59462   1.60217   1.60363
 Alpha virt. eigenvalues --    1.61052   1.62055   1.62180   1.62475   1.62805
 Alpha virt. eigenvalues --    1.63382   1.63747   1.63952   1.64518   1.64669
 Alpha virt. eigenvalues --    1.65645   1.65826   1.66102   1.66801   1.66961
 Alpha virt. eigenvalues --    1.67454   1.68010   1.68698   1.70460   1.70705
 Alpha virt. eigenvalues --    1.71207   1.71660   1.71961   1.72548   1.72792
 Alpha virt. eigenvalues --    1.73405   1.73414   1.74111   1.74898   1.75342
 Alpha virt. eigenvalues --    1.75718   1.76405   1.77009   1.77564   1.77761
 Alpha virt. eigenvalues --    1.78209   1.78328   1.78593   1.78854   1.79355
 Alpha virt. eigenvalues --    1.79545   1.80453   1.80755   1.81135   1.81470
 Alpha virt. eigenvalues --    1.81705   1.82087   1.82316   1.82949   1.83049
 Alpha virt. eigenvalues --    1.83507   1.83762   1.84443   1.85129   1.85462
 Alpha virt. eigenvalues --    1.85683   1.86128   1.86375   1.86572   1.86897
 Alpha virt. eigenvalues --    1.87036   1.87436   1.87817   1.88493   1.89161
 Alpha virt. eigenvalues --    1.90130   1.90847   1.91000   1.91759   1.92651
 Alpha virt. eigenvalues --    1.92868   1.93269   1.94569   1.95097   1.97197
 Alpha virt. eigenvalues --    1.97376   1.98148   1.99366   2.01292   2.01472
 Alpha virt. eigenvalues --    2.04242   2.05861   2.08825   2.09406   2.11728
 Alpha virt. eigenvalues --    2.15082   2.18999   2.30885   2.33676   2.33964
 Alpha virt. eigenvalues --    2.34457   2.35002   2.35048   2.36281   2.36542
 Alpha virt. eigenvalues --    2.36973   2.37945   2.37960   2.39584   2.39696
 Alpha virt. eigenvalues --    2.39867   2.40673   2.41057   2.42479   2.44572
 Alpha virt. eigenvalues --    2.44907   2.46468   2.47851   2.49530   2.52145
 Alpha virt. eigenvalues --    2.55916   2.56249   2.58338   2.59204   2.59716
 Alpha virt. eigenvalues --    2.60118   2.60752   2.61264   2.61599   2.61977
 Alpha virt. eigenvalues --    2.62053   2.62292   2.62500   2.62770   2.62995
 Alpha virt. eigenvalues --    2.63079   2.63121   2.63515   2.63776   2.64135
 Alpha virt. eigenvalues --    2.64555   2.64667   2.65530   2.65620   2.65722
 Alpha virt. eigenvalues --    2.65959   2.66347   2.67538   2.68549   2.69274
 Alpha virt. eigenvalues --    2.69681   2.70633   2.71053   2.73020   2.73846
 Alpha virt. eigenvalues --    2.74525   2.74802   2.76591   2.76766   2.77431
 Alpha virt. eigenvalues --    2.77562   2.77991   2.81782   2.82528   2.84755
 Alpha virt. eigenvalues --    2.86737   2.93878   3.40455   3.40674   3.40952
 Alpha virt. eigenvalues --    3.41428   3.42021   3.43352   3.43847   3.45080
 Alpha virt. eigenvalues --    3.46059   3.46543   3.47292   3.47727   3.49276
 Alpha virt. eigenvalues --    3.49943   3.51998   3.54290   3.54854   3.55382
 Alpha virt. eigenvalues --    4.72473   6.22544   6.62440   7.77735
          Condensed to atoms (all electrons):
 Mulliken charges:
               1
     1  Si   1.293226
     2  O   -0.645907
     3  O   -0.650271
     4  O   -0.649162
     5  O   -0.756292
     6  Zr   1.615829
     7  Si   1.121187
     8  Si   1.162047
     9  Si   1.135616
    10  O   -0.820773
    11  Zr   1.493529
    12  O   -0.863178
    13  Zr   1.592322
    14  O   -0.827947
    15  Zr   1.550854
    16  O   -0.626719
    17  O   -0.574348
    18  O   -0.665307
    19  O   -0.626193
    20  O   -0.610728
    21  O   -0.644022
    22  O   -0.578139
    23  O   -0.653523
    24  O   -0.618341
    25  H    0.355025
    26  H    0.334045
    27  H    0.367087
    28  H    0.369850
    29  H    0.365219
    30  H    0.337830
    31  H    0.336522
    32  H    0.381032
    33  H    0.344352
    34  O   -0.695097
    35  H    0.332497
    36  O   -0.706955
    37  H    0.365515
    38  O   -0.749334
    39  H    0.331303
    40  O   -0.763756
    41  H    0.371992
    42  O   -0.694232
    43  H    0.334214
    44  O   -0.699212
    45  H    0.335361
    46  O   -0.762274
    47  H    0.380769
    48  O   -0.742325
    49  H    0.340338
    50  O   -0.691503
    51  H    0.367977
 Sum of Mulliken charges =  -0.00000
 Mulliken charges with hydrogens summed into heavy atoms:
               1
     1  Si   1.293226
     2  O   -0.645907
     3  O   -0.650271
     4  O   -0.649162
     5  O   -0.756292
     6  Zr   1.615829
     7  Si   1.121187
     8  Si   1.162047
     9  Si   1.135616
    10  O   -0.820773
    11  Zr   1.493529
    12  O   -0.863178
    13  Zr   1.592322
    14  O   -0.827947
    15  Zr   1.550854
    16  O   -0.288889
    17  O   -0.237826
    18  O   -0.300088
    19  O   -0.281841
    20  O   -0.240878
    21  O   -0.262990
    22  O   -0.244094
    23  O   -0.298498
    24  O   -0.251254
    34  O   -0.362600
    36  O   -0.341440
    38  O   -0.418031
    40  O   -0.391764
    42  O   -0.360018
    44  O   -0.363851
    46  O   -0.381505
    48  O   -0.401987
    50  O   -0.323526
 Electronic spatial extent (au):  <R**2>=          25162.6880
 Charge=              0.0000 electrons
 Dipole moment (field-independent basis, Debye):
    X=              2.1126    Y=              4.4697    Z=              0.8911  Tot=              5.0235
 Quadrupole moment (field-independent basis, Debye-Ang):
   XX=           -295.5986   YY=           -258.0462   ZZ=           -261.4649
   XY=              3.0472   XZ=              7.5570   YZ=             -8.1130
 Traceless Quadrupole moment (field-independent basis, Debye-Ang):
   XX=            -23.8954   YY=             13.6570   ZZ=             10.2383
   XY=              3.0472   XZ=              7.5570   YZ=             -8.1130
 Octapole moment (field-independent basis, Debye-Ang**2):
  XXX=            327.0768  YYY=            103.8049  ZZZ=            -39.8343  XYY=            158.5123
  XXY=             61.8463  XXZ=            -28.2876  XZZ=            122.5093  YZZ=             11.0594
  YYZ=            -19.5460  XYZ=             58.4587
 Hexadecapole moment (field-independent basis, Debye-Ang**3):
 XXXX=         -22825.6192 YYYY=          -5758.4548 ZZZZ=          -4871.3839 XXXY=            111.3041
 XXXZ=            -40.6576 YYYX=             46.2532 YYYZ=             27.3904 ZZZX=             69.5093
 ZZZY=            -65.7657 XXYY=          -4688.1515 XXZZ=          -3829.8779 YYZZ=          -1735.7474
 XXYZ=           -514.4505 YYXZ=           -165.0674 ZZXY=            178.8789
 N-N= 5.661523864903D+03 E-N=-1.892368771976D+04  KE= 3.091319292645D+03
 1\1\GINC-GRA602\FOpt\RB3LYP\Gen\H18O25Si4Zr4\SARASHS\24-Jun-2020\0\\#n
  B3LYP/GEN PSEUDO=READ Opt(modredundant)\\Title\\0,1\Si,-2.7661083849,
 0.455217538,-0.8547318667\O,-2.634784622,-0.0924730779,0.6838102522\O,
 -3.6918125942,1.8257269381,-0.8442247673\O,-3.507667568,-0.7045537563,
 -1.743986715\O,-1.2723009803,0.7929625452,-1.3899222183\Zr,0.636872072
 7,0.545072053,-0.8178685583\Si,-2.8813432629,-0.4169668922,2.259021543
 3\Si,-5.2520581137,2.1155932025,-0.393718178\Si,-4.7014507402,-1.82038
 67524,-1.4367626314\O,1.4692495037,-1.0359095156,-1.5497267041\Zr,3.14
 80136563,-2.1863879644,-1.5639697721\O,0.8127621414,0.2197106486,1.170
 7273767\Zr,2.0962687575,-0.8574315137,2.2101199819\O,1.8060796909,2.08
 91565047,-1.1810831027\Zr,3.6284512349,2.7459942034,-0.741928749\O,-6.
 3096960498,1.7688100266,-1.6198791456\O,-5.3624800873,3.6918002139,0.0
 377616889\O,-5.7027841987,1.115442696,0.8449812016\O,-3.452985901,-1.9
 830623036,2.2622612797\O,-3.9322640512,0.6039545828,2.9775577598\O,-1.
 4108290733,-0.3409302243,3.0080876691\O,-5.084198073,-2.554512587,-2.8
 514095394\O,-6.0585260048,-1.0123575357,-0.9078635037\O,-4.2519281962,
 -2.9057048392,-0.3139270202\H,-6.4182790334,-0.3623015919,-1.533883689
 5\H,-4.3451303945,-2.9186253944,-3.3505701637\H,-3.9332962979,-2.61796
 41935,0.5615795179\H,-4.6793166718,0.8670417485,2.4026686533\H,-6.0012
 422923,0.2459275797,0.5041620109\H,-6.2625141398,2.3307396252,-2.40139
 52883\H,-4.5277882784,4.1232129297,0.2503783174\H,-0.7533691724,0.0753
 392162,2.4186741546\H,-3.9916182633,-2.2477102638,3.0162546017\O,3.412
 5843975,-2.6284001073,-3.4631159959\H,4.0372213189,-2.326535025,-4.129
 8605274\O,4.6604348532,-1.031021422,-1.1632684305\H,4.8186463589,-0.25
 82253047,-0.584368104\O,3.0964625514,-4.0657535778,-0.7945159689\H,3.2
 144740194,-4.8694034508,-1.3126641286\O,4.4383635852,1.2987012031,0.35
 57440083\H,4.3463840753,1.0790628104,1.3068903166\O,4.6821675007,2.962
 7555856,-2.3748602705\H,5.0481341049,3.5879621093,-3.0049387263\O,3.46
 66356903,4.3942294392,0.2843627632\H,2.9679250034,5.108709089,0.685074
 8098\O,2.7826929687,-2.2301691633,0.9276458749\H,2.8472308271,-3.20430
 73262,0.8652167977\O,3.5999999163,0.3228665607,2.8105333435\H,3.899326
 4239,0.6127238775,3.6791982324\O,1.0971141393,-1.58235042,3.7076769298
 \H,0.1427276534,-1.4609587239,3.8614646801\\Version=ES64L-G16RevB.01\S
 tate=1-A\HF=-3237.5675088\RMSD=9.471e-09\RMSF=1.031e-04\Dipole=0.83205
 31,1.7665165,0.3052619\Quadrupole=-17.4844856,10.0042138,7.4802717,2.0
 788354,6.2486582,-6.0967874\PG=C01 [X(H18O25Si4Zr4)]\\@


 A people that values its privileges above its principles soon loses both.
 -- Dwight D. Eisenhower
 Job cpu time:       1 days  0 hours 11 minutes 24.0 seconds.
 Elapsed time:       0 days  1 hours 31 minutes 10.8 seconds.
 File lengths (MBytes):  RWF=    218 Int=      0 D2E=      0 Chk=     28 Scr=      1
 Normal termination of Gaussian 16 at Wed Jun 24 15:31:30 2020.
