 Entering Gaussian System, Link 0=g16
 Initial command:
 /opt/software/gaussian/g16.b01/l1.exe "/localscratch/sarashs.33329486.0/Gau-15898.inp" -scrdir="/localscratch/sarashs.33329486.0/"
 Entering Link 1 = /opt/software/gaussian/g16.b01/l1.exe PID=     15902.
  
 Copyright (c) 1988-2017, Gaussian, Inc.  All Rights Reserved.
  
 This is part of the Gaussian(R) 16 program.  It is based on
 the Gaussian(R) 09 system (copyright 2009, Gaussian, Inc.),
 the Gaussian(R) 03 system (copyright 2003, Gaussian, Inc.),
 the Gaussian(R) 98 system (copyright 1998, Gaussian, Inc.),
 the Gaussian(R) 94 system (copyright 1995, Gaussian, Inc.),
 the Gaussian 92(TM) system (copyright 1992, Gaussian, Inc.),
 the Gaussian 90(TM) system (copyright 1990, Gaussian, Inc.),
 the Gaussian 88(TM) system (copyright 1988, Gaussian, Inc.),
 the Gaussian 86(TM) system (copyright 1986, Carnegie Mellon
 University), and the Gaussian 82(TM) system (copyright 1983,
 Carnegie Mellon University). Gaussian is a federally registered
 trademark of Gaussian, Inc.
  
 This software contains proprietary and confidential information,
 including trade secrets, belonging to Gaussian, Inc.
  
 This software is provided under written license and may be
 used, copied, transmitted, or stored only in accord with that
 written license.
  
 The following legend is applicable only to US Government
 contracts under FAR:
  
                    RESTRICTED RIGHTS LEGEND
  
 Use, reproduction and disclosure by the US Government is
 subject to restrictions as set forth in subparagraphs (a)
 and (c) of the Commercial Computer Software - Restricted
 Rights clause in FAR 52.227-19.
  
 Gaussian, Inc.
 340 Quinnipiac St., Bldg. 40, Wallingford CT 06492
  
  
 ---------------------------------------------------------------
 Warning -- This program may not be used in any manner that
 competes with the business of Gaussian, Inc. or will provide
 assistance to any competitor of Gaussian, Inc.  The licensee
 of this program is prohibited from giving any competitor of
 Gaussian, Inc. access to this program.  By using this program,
 the user acknowledges that Gaussian, Inc. is engaged in the
 business of creating and licensing software in the field of
 computational chemistry and represents and warrants to the
 licensee that it is not a competitor of Gaussian, Inc. and that
 it will not use this program in any manner prohibited above.
 ---------------------------------------------------------------
  

 Cite this work as:
 Gaussian 16, Revision B.01,
 M. J. Frisch, G. W. Trucks, H. B. Schlegel, G. E. Scuseria, 
 M. A. Robb, J. R. Cheeseman, G. Scalmani, V. Barone, 
 G. A. Petersson, H. Nakatsuji, X. Li, M. Caricato, A. V. Marenich, 
 J. Bloino, B. G. Janesko, R. Gomperts, B. Mennucci, H. P. Hratchian, 
 J. V. Ortiz, A. F. Izmaylov, J. L. Sonnenberg, D. Williams-Young, 
 F. Ding, F. Lipparini, F. Egidi, J. Goings, B. Peng, A. Petrone, 
 T. Henderson, D. Ranasinghe, V. G. Zakrzewski, J. Gao, N. Rega, 
 G. Zheng, W. Liang, M. Hada, M. Ehara, K. Toyota, R. Fukuda, 
 J. Hasegawa, M. Ishida, T. Nakajima, Y. Honda, O. Kitao, H. Nakai, 
 T. Vreven, K. Throssell, J. A. Montgomery, Jr., J. E. Peralta, 
 F. Ogliaro, M. J. Bearpark, J. J. Heyd, E. N. Brothers, K. N. Kudin, 
 V. N. Staroverov, T. A. Keith, R. Kobayashi, J. Normand, 
 K. Raghavachari, A. P. Rendell, J. C. Burant, S. S. Iyengar, 
 J. Tomasi, M. Cossi, J. M. Millam, M. Klene, C. Adamo, R. Cammi, 
 J. W. Ochterski, R. L. Martin, K. Morokuma, O. Farkas, 
 J. B. Foresman, and D. J. Fox, Gaussian, Inc., Wallingford CT, 2016.
 
 ******************************************
 Gaussian 16:  ES64L-G16RevB.01 20-Dec-2017
                22-Jun-2020 
 ******************************************
 %NProcShared=16
 Will use up to   16 processors via shared memory.
 -----------------------------------
 #n B3LYP/GEN PSEUDO=READ Opt=calcfc
 -----------------------------------
 1/10=4,18=20,19=15,26=3,38=1/1,3;
 2/9=110,12=2,17=6,18=5,40=1/2;
 3/5=7,11=2,16=1,17=8,25=1,30=1,71=2,74=-5,140=1/1,2,3;
 4//1;
 5/5=2,38=5/2;
 8/6=4,10=90,11=11/1;
 11/6=1,8=1,9=11,15=111,16=1/1,2,10;
 10/6=1,13=1/2;
 6/7=2,8=2,9=2,10=2,28=1/1;
 7/10=1,18=20,25=1/1,2,3,16;
 1/10=4,18=20,19=15,26=3/3(2);
 2/9=110/2;
 99//99;
 2/9=110/2;
 3/5=7,6=1,11=2,16=1,17=8,25=1,30=1,71=1,74=-5,82=7/1,2,3;
 4/5=5,16=3,69=1/1;
 5/5=2,38=5/2;
 7//1,2,3,16;
 1/18=20,19=15,26=3/3(-5);
 2/9=110/2;
 6/7=2,8=2,9=2,10=2,19=2,28=1/1;
 99/9=1/99;
 -----
 Title
 -----
 Symbolic Z-matrix:
 Charge =  0 Multiplicity = 1
 Si                   -2.75726   0.53123  -0.79679 
 O                    -2.63737  -0.07688   0.72072 
 O                    -3.72382   1.87164  -0.75429 
 O                    -3.45755  -0.61895  -1.73801 
 O                    -1.26784   0.92979  -1.29183 
 Zr                    0.6151    0.5902   -0.66343 
 Si                   -2.95411  -0.39122   2.29062 
 Si                   -5.31387   2.10259  -0.37819 
 Si                   -4.61629  -1.7843   -1.48287 
 O                     1.3721   -1.04559  -1.35046 
 Zr                    3.0202   -2.23579  -1.36143 
 O                     0.75686   0.26465   1.34229 
 Zr                    1.99929  -0.84058   2.39137 
 O                     1.85827   2.02986  -1.0078 
 Zr                    3.70698   2.66518  -0.58627 
 O                    -6.30582   1.75982  -1.653 
 O                    -5.48998   3.66255   0.09488 
 O                    -5.78931   1.06034   0.81928 
 O                    -3.49443  -1.97455   2.2671 
 O                    -4.03679   0.61591   2.96684 
 O                    -1.51447  -0.31217   3.10024 
 O                    -4.92374  -2.51171  -2.92049 
 O                    -6.02568  -1.03557  -0.99675 
 O                    -4.16857  -2.86633  -0.36186 
 H                    -6.36416  -0.37173  -1.61044 
 H                    -4.14598  -2.79254  -3.42244 
 H                    -3.90923  -2.59204   0.53541 
 H                    -4.80183   0.82742   2.37919 
 H                    -6.04995   0.18917   0.44143 
 H                    -6.22035   2.3273   -2.43017 
 H                    -4.67697   4.11631   0.3474 
 H                    -0.84952   0.13434   2.5612 
 H                    -4.07331  -2.23881   2.9757 
 O                     3.2843   -2.72198  -3.24414 
 H                     3.90108  -2.43645  -3.92893 
 O                     4.56894  -1.12413  -0.97516 
 H                     4.77311  -0.3744   -0.37805 
 O                     2.90766  -4.11427  -0.57182 
 H                     2.99958  -4.91626  -1.08557 
 O                     4.49506   1.2335    0.53518 
 H                     4.33688   0.99654   1.49727 
 O                     4.75943   2.77905  -2.22602 
 H                     5.07085   3.3216   -2.97328 
 O                     3.55891   4.3264    0.4011 
 H                     3.48579   5.14676   0.88869 
 O                     2.65827  -2.24561   1.12016 
 H                     2.67358  -3.22111   1.07904 
 O                     3.54716   0.29155   2.98289 
 H                     3.86034   0.57223   3.84639 
 O                     0.97906  -1.53553   3.88856 
 H                     0.02331  -1.39895   4.02747 
 

 GradGradGradGradGradGradGradGradGradGradGradGradGradGradGradGradGradGrad
 Berny optimization.
 Initialization pass.
                           ----------------------------
                           !    Initial Parameters    !
                           ! (Angstroms and Degrees)  !
 --------------------------                            --------------------------
 ! Name  Definition              Value          Derivative Info.                !
 --------------------------------------------------------------------------------
 ! R1    R(1,2)                  1.6392         calculate D2E/DX2 analytically  !
 ! R2    R(1,3)                  1.6531         calculate D2E/DX2 analytically  !
 ! R3    R(1,4)                  1.6429         calculate D2E/DX2 analytically  !
 ! R4    R(1,5)                  1.6194         calculate D2E/DX2 analytically  !
 ! R5    R(2,7)                  1.6321         calculate D2E/DX2 analytically  !
 ! R6    R(3,8)                  1.6502         calculate D2E/DX2 analytically  !
 ! R7    R(4,9)                  1.6631         calculate D2E/DX2 analytically  !
 ! R8    R(5,6)                  2.0139         calculate D2E/DX2 analytically  !
 ! R9    R(6,10)                 1.929          calculate D2E/DX2 analytically  !
 ! R10   R(6,12)                 2.0369         calculate D2E/DX2 analytically  !
 ! R11   R(6,14)                 1.933          calculate D2E/DX2 analytically  !
 ! R12   R(7,19)                 1.6731         calculate D2E/DX2 analytically  !
 ! R13   R(7,20)                 1.626          calculate D2E/DX2 analytically  !
 ! R14   R(7,21)                 1.6536         calculate D2E/DX2 analytically  !
 ! R15   R(8,16)                 1.6512         calculate D2E/DX2 analytically  !
 ! R16   R(8,17)                 1.6396         calculate D2E/DX2 analytically  !
 ! R17   R(8,18)                 1.6572         calculate D2E/DX2 analytically  !
 ! R18   R(9,22)                 1.6402         calculate D2E/DX2 analytically  !
 ! R19   R(9,23)                 1.6683         calculate D2E/DX2 analytically  !
 ! R20   R(9,24)                 1.6211         calculate D2E/DX2 analytically  !
 ! R21   R(10,11)                2.033          calculate D2E/DX2 analytically  !
 ! R22   R(11,34)                1.9623         calculate D2E/DX2 analytically  !
 ! R23   R(11,36)                1.9451         calculate D2E/DX2 analytically  !
 ! R24   R(11,38)                2.0408         calculate D2E/DX2 analytically  !
 ! R25   R(12,13)                1.9661         calculate D2E/DX2 analytically  !
 ! R26   R(13,46)                2.0061         calculate D2E/DX2 analytically  !
 ! R27   R(13,48)                2.0069         calculate D2E/DX2 analytically  !
 ! R28   R(13,50)                1.9405         calculate D2E/DX2 analytically  !
 ! R29   R(14,15)                1.9998         calculate D2E/DX2 analytically  !
 ! R30   R(15,40)                1.982          calculate D2E/DX2 analytically  !
 ! R31   R(15,42)                1.9518         calculate D2E/DX2 analytically  !
 ! R32   R(15,44)                1.9382         calculate D2E/DX2 analytically  !
 ! R33   R(16,30)                0.9661         calculate D2E/DX2 analytically  !
 ! R34   R(17,31)                0.9647         calculate D2E/DX2 analytically  !
 ! R35   R(18,29)                0.9847         calculate D2E/DX2 analytically  !
 ! R36   R(19,33)                0.9524         calculate D2E/DX2 analytically  !
 ! R37   R(20,28)                0.9876         calculate D2E/DX2 analytically  !
 ! R38   R(21,32)                0.9654         calculate D2E/DX2 analytically  !
 ! R39   R(22,26)                0.9673         calculate D2E/DX2 analytically  !
 ! R40   R(23,25)                0.9653         calculate D2E/DX2 analytically  !
 ! R41   R(24,27)                0.9734         calculate D2E/DX2 analytically  !
 ! R42   R(34,35)                0.9648         calculate D2E/DX2 analytically  !
 ! R43   R(36,37)                0.98           calculate D2E/DX2 analytically  !
 ! R44   R(38,39)                0.9569         calculate D2E/DX2 analytically  !
 ! R45   R(40,41)                1.0034         calculate D2E/DX2 analytically  !
 ! R46   R(42,43)                0.9745         calculate D2E/DX2 analytically  !
 ! R47   R(44,45)                0.9571         calculate D2E/DX2 analytically  !
 ! R48   R(46,47)                0.9765         calculate D2E/DX2 analytically  !
 ! R49   R(48,49)                0.9605         calculate D2E/DX2 analytically  !
 ! R50   R(50,51)                0.9754         calculate D2E/DX2 analytically  !
 ! A1    A(2,1,3)              108.649          calculate D2E/DX2 analytically  !
 ! A2    A(2,1,4)              107.5672         calculate D2E/DX2 analytically  !
 ! A3    A(2,1,5)              107.8812         calculate D2E/DX2 analytically  !
 ! A4    A(3,1,4)              109.4607         calculate D2E/DX2 analytically  !
 ! A5    A(3,1,5)              110.2473         calculate D2E/DX2 analytically  !
 ! A6    A(4,1,5)              112.9054         calculate D2E/DX2 analytically  !
 ! A7    A(1,2,7)              161.3945         calculate D2E/DX2 analytically  !
 ! A8    A(1,3,8)              133.0578         calculate D2E/DX2 analytically  !
 ! A9    A(1,4,9)              134.3991         calculate D2E/DX2 analytically  !
 ! A10   A(1,5,6)              136.3088         calculate D2E/DX2 analytically  !
 ! A11   A(5,6,10)             113.502          calculate D2E/DX2 analytically  !
 ! A12   A(5,6,12)             113.5333         calculate D2E/DX2 analytically  !
 ! A13   A(5,6,14)             114.8427         calculate D2E/DX2 analytically  !
 ! A14   A(10,6,12)            100.8283         calculate D2E/DX2 analytically  !
 ! A15   A(10,6,14)            108.4054         calculate D2E/DX2 analytically  !
 ! A16   A(12,6,14)            104.4595         calculate D2E/DX2 analytically  !
 ! A17   A(2,7,19)             103.3801         calculate D2E/DX2 analytically  !
 ! A18   A(2,7,20)             114.2025         calculate D2E/DX2 analytically  !
 ! A19   A(2,7,21)             107.0248         calculate D2E/DX2 analytically  !
 ! A20   A(19,7,20)            112.1461         calculate D2E/DX2 analytically  !
 ! A21   A(19,7,21)            109.468          calculate D2E/DX2 analytically  !
 ! A22   A(20,7,21)            110.2726         calculate D2E/DX2 analytically  !
 ! A23   A(3,8,16)             111.952          calculate D2E/DX2 analytically  !
 ! A24   A(3,8,17)             107.603          calculate D2E/DX2 analytically  !
 ! A25   A(3,8,18)             110.6776         calculate D2E/DX2 analytically  !
 ! A26   A(16,8,17)            110.8379         calculate D2E/DX2 analytically  !
 ! A27   A(16,8,18)            104.7714         calculate D2E/DX2 analytically  !
 ! A28   A(17,8,18)            111.0437         calculate D2E/DX2 analytically  !
 ! A29   A(4,9,22)             107.872          calculate D2E/DX2 analytically  !
 ! A30   A(4,9,23)             108.5925         calculate D2E/DX2 analytically  !
 ! A31   A(4,9,24)             112.4188         calculate D2E/DX2 analytically  !
 ! A32   A(22,9,23)            107.2212         calculate D2E/DX2 analytically  !
 ! A33   A(22,9,24)            111.2139         calculate D2E/DX2 analytically  !
 ! A34   A(23,9,24)            109.3526         calculate D2E/DX2 analytically  !
 ! A35   A(6,10,11)            144.7402         calculate D2E/DX2 analytically  !
 ! A36   A(10,11,34)           105.0307         calculate D2E/DX2 analytically  !
 ! A37   A(10,11,36)           108.0481         calculate D2E/DX2 analytically  !
 ! A38   A(10,11,38)           119.4784         calculate D2E/DX2 analytically  !
 ! A39   A(34,11,36)           103.0008         calculate D2E/DX2 analytically  !
 ! A40   A(34,11,38)            98.6604         calculate D2E/DX2 analytically  !
 ! A41   A(36,11,38)           119.5463         calculate D2E/DX2 analytically  !
 ! A42   A(6,12,13)            131.2406         calculate D2E/DX2 analytically  !
 ! A43   A(12,13,46)           105.2584         calculate D2E/DX2 analytically  !
 ! A44   A(12,13,48)           109.1193         calculate D2E/DX2 analytically  !
 ! A45   A(12,13,50)           106.3061         calculate D2E/DX2 analytically  !
 ! A46   A(46,13,48)           109.1789         calculate D2E/DX2 analytically  !
 ! A47   A(46,13,50)           114.2553         calculate D2E/DX2 analytically  !
 ! A48   A(48,13,50)           112.342          calculate D2E/DX2 analytically  !
 ! A49   A(6,14,15)            142.5224         calculate D2E/DX2 analytically  !
 ! A50   A(14,15,40)           104.9139         calculate D2E/DX2 analytically  !
 ! A51   A(14,15,42)           109.8733         calculate D2E/DX2 analytically  !
 ! A52   A(14,15,44)           108.0025         calculate D2E/DX2 analytically  !
 ! A53   A(40,15,42)           107.6437         calculate D2E/DX2 analytically  !
 ! A54   A(40,15,44)           111.177          calculate D2E/DX2 analytically  !
 ! A55   A(42,15,44)           114.783          calculate D2E/DX2 analytically  !
 ! A56   A(8,16,30)            116.4861         calculate D2E/DX2 analytically  !
 ! A57   A(8,17,31)            115.6275         calculate D2E/DX2 analytically  !
 ! A58   A(8,18,29)            110.7984         calculate D2E/DX2 analytically  !
 ! A59   A(7,19,33)            116.6409         calculate D2E/DX2 analytically  !
 ! A60   A(7,20,28)            113.6412         calculate D2E/DX2 analytically  !
 ! A61   A(7,21,32)            110.389          calculate D2E/DX2 analytically  !
 ! A62   A(9,22,26)            115.6478         calculate D2E/DX2 analytically  !
 ! A63   A(9,23,25)            114.8098         calculate D2E/DX2 analytically  !
 ! A64   A(9,24,27)            121.5274         calculate D2E/DX2 analytically  !
 ! A65   A(11,34,35)           133.9213         calculate D2E/DX2 analytically  !
 ! A66   A(11,36,37)           136.396          calculate D2E/DX2 analytically  !
 ! A67   A(11,38,39)           123.9487         calculate D2E/DX2 analytically  !
 ! A68   A(15,40,41)           130.5738         calculate D2E/DX2 analytically  !
 ! A69   A(15,42,43)           148.1021         calculate D2E/DX2 analytically  !
 ! A70   A(13,46,47)           137.0134         calculate D2E/DX2 analytically  !
 ! A71   A(13,48,49)           132.9482         calculate D2E/DX2 analytically  !
 ! A72   A(13,50,51)           125.093          calculate D2E/DX2 analytically  !
 ! A73   L(15,44,45,3,-1)      180.0001         calculate D2E/DX2 analytically  !
 ! A74   L(15,44,45,3,-2)      180.0            calculate D2E/DX2 analytically  !
 ! D1    D(3,1,2,7)             19.4273         calculate D2E/DX2 analytically  !
 ! D2    D(4,1,2,7)            -98.9756         calculate D2E/DX2 analytically  !
 ! D3    D(5,1,2,7)            138.9437         calculate D2E/DX2 analytically  !
 ! D4    D(2,1,3,8)            -63.6834         calculate D2E/DX2 analytically  !
 ! D5    D(4,1,3,8)             53.5169         calculate D2E/DX2 analytically  !
 ! D6    D(5,1,3,8)            178.2894         calculate D2E/DX2 analytically  !
 ! D7    D(2,1,4,9)             34.3772         calculate D2E/DX2 analytically  !
 ! D8    D(3,1,4,9)            -83.5015         calculate D2E/DX2 analytically  !
 ! D9    D(5,1,4,9)            153.2849         calculate D2E/DX2 analytically  !
 ! D10   D(2,1,5,6)             12.4974         calculate D2E/DX2 analytically  !
 ! D11   D(3,1,5,6)            130.9959         calculate D2E/DX2 analytically  !
 ! D12   D(4,1,5,6)           -106.228          calculate D2E/DX2 analytically  !
 ! D13   D(1,2,7,19)           107.8436         calculate D2E/DX2 analytically  !
 ! D14   D(1,2,7,20)           -14.2797         calculate D2E/DX2 analytically  !
 ! D15   D(1,2,7,21)          -136.618          calculate D2E/DX2 analytically  !
 ! D16   D(1,3,8,16)           -82.1847         calculate D2E/DX2 analytically  !
 ! D17   D(1,3,8,17)           155.7928         calculate D2E/DX2 analytically  !
 ! D18   D(1,3,8,18)            34.2989         calculate D2E/DX2 analytically  !
 ! D19   D(1,4,9,22)           175.3528         calculate D2E/DX2 analytically  !
 ! D20   D(1,4,9,23)            59.4611         calculate D2E/DX2 analytically  !
 ! D21   D(1,4,9,24)           -61.6696         calculate D2E/DX2 analytically  !
 ! D22   D(1,5,6,10)            87.5363         calculate D2E/DX2 analytically  !
 ! D23   D(1,5,6,12)           -26.8461         calculate D2E/DX2 analytically  !
 ! D24   D(1,5,6,14)          -146.9616         calculate D2E/DX2 analytically  !
 ! D25   D(5,6,10,11)          179.9485         calculate D2E/DX2 analytically  !
 ! D26   D(12,6,10,11)         -58.2843         calculate D2E/DX2 analytically  !
 ! D27   D(14,6,10,11)          51.0802         calculate D2E/DX2 analytically  !
 ! D28   D(5,6,12,13)          148.6717         calculate D2E/DX2 analytically  !
 ! D29   D(10,6,12,13)          26.9265         calculate D2E/DX2 analytically  !
 ! D30   D(14,6,12,13)         -85.4878         calculate D2E/DX2 analytically  !
 ! D31   D(5,6,14,15)          169.6454         calculate D2E/DX2 analytically  !
 ! D32   D(10,6,14,15)         -62.2431         calculate D2E/DX2 analytically  !
 ! D33   D(12,6,14,15)          44.6316         calculate D2E/DX2 analytically  !
 ! D34   D(2,7,19,33)         -154.2632         calculate D2E/DX2 analytically  !
 ! D35   D(20,7,19,33)         -30.7742         calculate D2E/DX2 analytically  !
 ! D36   D(21,7,19,33)          91.9529         calculate D2E/DX2 analytically  !
 ! D37   D(2,7,20,28)           41.3062         calculate D2E/DX2 analytically  !
 ! D38   D(19,7,20,28)         -75.878          calculate D2E/DX2 analytically  !
 ! D39   D(21,7,20,28)         161.8514         calculate D2E/DX2 analytically  !
 ! D40   D(2,7,21,32)           15.9433         calculate D2E/DX2 analytically  !
 ! D41   D(19,7,21,32)         127.3467         calculate D2E/DX2 analytically  !
 ! D42   D(20,7,21,32)        -108.8186         calculate D2E/DX2 analytically  !
 ! D43   D(3,8,16,30)          -64.8272         calculate D2E/DX2 analytically  !
 ! D44   D(17,8,16,30)          55.3245         calculate D2E/DX2 analytically  !
 ! D45   D(18,8,16,30)         175.1728         calculate D2E/DX2 analytically  !
 ! D46   D(3,8,17,31)          -17.9956         calculate D2E/DX2 analytically  !
 ! D47   D(16,8,17,31)        -140.7069         calculate D2E/DX2 analytically  !
 ! D48   D(18,8,17,31)         103.2695         calculate D2E/DX2 analytically  !
 ! D49   D(3,8,18,29)          -84.6457         calculate D2E/DX2 analytically  !
 ! D50   D(16,8,18,29)          36.2012         calculate D2E/DX2 analytically  !
 ! D51   D(17,8,18,29)         155.9117         calculate D2E/DX2 analytically  !
 ! D52   D(4,9,22,26)           48.437          calculate D2E/DX2 analytically  !
 ! D53   D(23,9,22,26)         165.2237         calculate D2E/DX2 analytically  !
 ! D54   D(24,9,22,26)         -75.2736         calculate D2E/DX2 analytically  !
 ! D55   D(4,9,23,25)           56.9746         calculate D2E/DX2 analytically  !
 ! D56   D(22,9,23,25)         -59.3371         calculate D2E/DX2 analytically  !
 ! D57   D(24,9,23,25)         179.9733         calculate D2E/DX2 analytically  !
 ! D58   D(4,9,24,27)           55.9601         calculate D2E/DX2 analytically  !
 ! D59   D(22,9,24,27)         177.041          calculate D2E/DX2 analytically  !
 ! D60   D(23,9,24,27)         -64.7342         calculate D2E/DX2 analytically  !
 ! D61   D(6,10,11,34)        -134.8032         calculate D2E/DX2 analytically  !
 ! D62   D(6,10,11,36)         -25.3835         calculate D2E/DX2 analytically  !
 ! D63   D(6,10,11,38)         115.8741         calculate D2E/DX2 analytically  !
 ! D64   D(10,11,34,35)        104.0535         calculate D2E/DX2 analytically  !
 ! D65   D(36,11,34,35)         -8.9773         calculate D2E/DX2 analytically  !
 ! D66   D(38,11,34,35)       -132.1459         calculate D2E/DX2 analytically  !
 ! D67   D(10,11,36,37)         39.4099         calculate D2E/DX2 analytically  !
 ! D68   D(34,11,36,37)        150.2135         calculate D2E/DX2 analytically  !
 ! D69   D(38,11,36,37)       -101.8169         calculate D2E/DX2 analytically  !
 ! D70   D(10,11,38,39)        114.2551         calculate D2E/DX2 analytically  !
 ! D71   D(34,11,38,39)          1.46           calculate D2E/DX2 analytically  !
 ! D72   D(36,11,38,39)       -108.8998         calculate D2E/DX2 analytically  !
 ! D73   D(6,12,13,46)         -24.0106         calculate D2E/DX2 analytically  !
 ! D74   D(6,12,13,48)          93.0523         calculate D2E/DX2 analytically  !
 ! D75   D(6,12,13,50)        -145.5752         calculate D2E/DX2 analytically  !
 ! D76   D(12,13,46,47)       -122.8167         calculate D2E/DX2 analytically  !
 ! D77   D(48,13,46,47)        120.161          calculate D2E/DX2 analytically  !
 ! D78   D(50,13,46,47)         -6.5776         calculate D2E/DX2 analytically  !
 ! D79   D(12,13,48,49)        115.553          calculate D2E/DX2 analytically  !
 ! D80   D(46,13,48,49)       -129.8974         calculate D2E/DX2 analytically  !
 ! D81   D(50,13,48,49)         -2.0765         calculate D2E/DX2 analytically  !
 ! D82   D(12,13,50,51)          4.0797         calculate D2E/DX2 analytically  !
 ! D83   D(46,13,50,51)       -111.5505         calculate D2E/DX2 analytically  !
 ! D84   D(48,13,50,51)        123.3671         calculate D2E/DX2 analytically  !
 ! D85   D(6,14,15,40)           2.7148         calculate D2E/DX2 analytically  !
 ! D86   D(6,14,15,42)         118.1696         calculate D2E/DX2 analytically  !
 ! D87   D(6,14,15,44)        -115.9471         calculate D2E/DX2 analytically  !
 ! D88   D(14,15,40,41)        -75.3162         calculate D2E/DX2 analytically  !
 ! D89   D(42,15,40,41)        167.6917         calculate D2E/DX2 analytically  !
 ! D90   D(44,15,40,41)         41.1826         calculate D2E/DX2 analytically  !
 ! D91   D(14,15,42,43)         92.5427         calculate D2E/DX2 analytically  !
 ! D92   D(40,15,42,43)       -153.7452         calculate D2E/DX2 analytically  !
 ! D93   D(44,15,42,43)        -29.3856         calculate D2E/DX2 analytically  !
 --------------------------------------------------------------------------------
 Trust Radius=3.00D-01 FncErr=1.00D-07 GrdErr=1.00D-06 EigMax=2.50D+02 EigMin=1.00D-04
 Number of steps in this run=    227 maximum allowed number of steps=    306.
 GradGradGradGradGradGradGradGradGradGradGradGradGradGradGradGradGradGrad

 Stoichiometry    H18O25Si4Zr4
 Framework group  C1[X(H18O25Si4Zr4)]
 Deg. of freedom   147
 Full point group                 C1      NOp   1
 Largest Abelian subgroup         C1      NOp   1
 Largest concise Abelian subgroup C1      NOp   1
                         Standard orientation:                         
 ---------------------------------------------------------------------
 Center     Atomic      Atomic             Coordinates (Angstroms)
 Number     Number       Type             X           Y           Z
 ---------------------------------------------------------------------
      1         14           0       -2.757262    0.531229   -0.796787
      2          8           0       -2.637371   -0.076876    0.720715
      3          8           0       -3.723818    1.871639   -0.754288
      4          8           0       -3.457553   -0.618947   -1.738012
      5          8           0       -1.267838    0.929786   -1.291834
      6         40           0        0.615104    0.590202   -0.663427
      7         14           0       -2.954114   -0.391222    2.290622
      8         14           0       -5.313869    2.102593   -0.378185
      9         14           0       -4.616287   -1.784298   -1.482871
     10          8           0        1.372098   -1.045586   -1.350455
     11         40           0        3.020201   -2.235792   -1.361425
     12          8           0        0.756863    0.264654    1.342290
     13         40           0        1.999288   -0.840582    2.391371
     14          8           0        1.858269    2.029858   -1.007799
     15         40           0        3.706981    2.665176   -0.586268
     16          8           0       -6.305822    1.759820   -1.653003
     17          8           0       -5.489984    3.662546    0.094877
     18          8           0       -5.789305    1.060339    0.819283
     19          8           0       -3.494426   -1.974549    2.267098
     20          8           0       -4.036795    0.615909    2.966835
     21          8           0       -1.514469   -0.312166    3.100235
     22          8           0       -4.923739   -2.511711   -2.920488
     23          8           0       -6.025683   -1.035575   -0.996754
     24          8           0       -4.168566   -2.866333   -0.361857
     25          1           0       -6.364164   -0.371725   -1.610436
     26          1           0       -4.145976   -2.792540   -3.422440
     27          1           0       -3.909233   -2.592038    0.535409
     28          1           0       -4.801828    0.827418    2.379194
     29          1           0       -6.049946    0.189165    0.441431
     30          1           0       -6.220354    2.327296   -2.430169
     31          1           0       -4.676968    4.116310    0.347404
     32          1           0       -0.849516    0.134344    2.561202
     33          1           0       -4.073306   -2.238812    2.975704
     34          8           0        3.284300   -2.721984   -3.244143
     35          1           0        3.901083   -2.436449   -3.928931
     36          8           0        4.568942   -1.124128   -0.975156
     37          1           0        4.773111   -0.374402   -0.378051
     38          8           0        2.907660   -4.114272   -0.571821
     39          1           0        2.999577   -4.916258   -1.085574
     40          8           0        4.495063    1.233501    0.535180
     41          1           0        4.336881    0.996535    1.497270
     42          8           0        4.759432    2.779053   -2.226023
     43          1           0        5.070847    3.321600   -2.973278
     44          8           0        3.558910    4.326397    0.401100
     45          1           0        3.485789    5.146757    0.888692
     46          8           0        2.658270   -2.245606    1.120159
     47          1           0        2.673584   -3.221111    1.079040
     48          8           0        3.547158    0.291548    2.982887
     49          1           0        3.860335    0.572225    3.846391
     50          8           0        0.979059   -1.535532    3.888563
     51          1           0        0.023309   -1.398952    4.027473
 ---------------------------------------------------------------------
 Rotational constants (GHZ):           0.0873148           0.0387786           0.0366540
 General basis read from cards:  (5D, 7F)
 ======================================================================================================
                                       Pseudopotential Parameters
 ======================================================================================================
  Center     Atomic      Valence      Angular      Power
  Number     Number     Electrons     Momentum     of R      Exponent        Coefficient   SO-Coeffient
 ======================================================================================================
    1         14
                                   No pseudopotential on this center.
    2          8
                                   No pseudopotential on this center.
    3          8
                                   No pseudopotential on this center.
    4          8
                                   No pseudopotential on this center.
    5          8
                                   No pseudopotential on this center.
    6         40           12
                                      F and up 
                                                     0      645.9321873       -0.04258430    0.00000000
                                                     1      134.7547401      -20.22224090    0.00000000
                                                     2       42.3074619     -101.86951720    0.00000000
                                                     2       12.0003227      -41.61957840    0.00000000
                                                     2        4.1260454       -4.69861600    0.00000000
                                      S - F
                                                     0      117.6251862        2.79105590    0.00000000
                                                     1       22.9646089       41.94894590    0.00000000
                                                     2        4.5225298       67.72718660    0.00000000
                                      P - F
                                                     0       47.1953145        4.99111440    0.00000000
                                                     1       48.0356033       20.71931720    0.00000000
                                                     2       19.4541456      195.58677580    0.00000000
                                                     2        4.0512875       48.28771760    0.00000000
                                      D - F
                                                     0       79.9073983        3.00492260    0.00000000
                                                     1       45.8263798       25.93779890    0.00000000
                                                     2       26.9903522      125.12449340    0.00000000
                                                     2        9.6835718       70.76340220    0.00000000
                                                     2        2.7995666       15.04928220    0.00000000
    7         14
                                   No pseudopotential on this center.
    8         14
                                   No pseudopotential on this center.
    9         14
                                   No pseudopotential on this center.
   10          8
                                   No pseudopotential on this center.
   11         40           12
                                      F and up 
                                                     0      645.9321873       -0.04258430    0.00000000
                                                     1      134.7547401      -20.22224090    0.00000000
                                                     2       42.3074619     -101.86951720    0.00000000
                                                     2       12.0003227      -41.61957840    0.00000000
                                                     2        4.1260454       -4.69861600    0.00000000
                                      S - F
                                                     0      117.6251862        2.79105590    0.00000000
                                                     1       22.9646089       41.94894590    0.00000000
                                                     2        4.5225298       67.72718660    0.00000000
                                      P - F
                                                     0       47.1953145        4.99111440    0.00000000
                                                     1       48.0356033       20.71931720    0.00000000
                                                     2       19.4541456      195.58677580    0.00000000
                                                     2        4.0512875       48.28771760    0.00000000
                                      D - F
                                                     0       79.9073983        3.00492260    0.00000000
                                                     1       45.8263798       25.93779890    0.00000000
                                                     2       26.9903522      125.12449340    0.00000000
                                                     2        9.6835718       70.76340220    0.00000000
                                                     2        2.7995666       15.04928220    0.00000000
   12          8
                                   No pseudopotential on this center.
   13         40           12
                                      F and up 
                                                     0      645.9321873       -0.04258430    0.00000000
                                                     1      134.7547401      -20.22224090    0.00000000
                                                     2       42.3074619     -101.86951720    0.00000000
                                                     2       12.0003227      -41.61957840    0.00000000
                                                     2        4.1260454       -4.69861600    0.00000000
                                      S - F
                                                     0      117.6251862        2.79105590    0.00000000
                                                     1       22.9646089       41.94894590    0.00000000
                                                     2        4.5225298       67.72718660    0.00000000
                                      P - F
                                                     0       47.1953145        4.99111440    0.00000000
                                                     1       48.0356033       20.71931720    0.00000000
                                                     2       19.4541456      195.58677580    0.00000000
                                                     2        4.0512875       48.28771760    0.00000000
                                      D - F
                                                     0       79.9073983        3.00492260    0.00000000
                                                     1       45.8263798       25.93779890    0.00000000
                                                     2       26.9903522      125.12449340    0.00000000
                                                     2        9.6835718       70.76340220    0.00000000
                                                     2        2.7995666       15.04928220    0.00000000
   14          8
                                   No pseudopotential on this center.
   15         40           12
                                      F and up 
                                                     0      645.9321873       -0.04258430    0.00000000
                                                     1      134.7547401      -20.22224090    0.00000000
                                                     2       42.3074619     -101.86951720    0.00000000
                                                     2       12.0003227      -41.61957840    0.00000000
                                                     2        4.1260454       -4.69861600    0.00000000
                                      S - F
                                                     0      117.6251862        2.79105590    0.00000000
                                                     1       22.9646089       41.94894590    0.00000000
                                                     2        4.5225298       67.72718660    0.00000000
                                      P - F
                                                     0       47.1953145        4.99111440    0.00000000
                                                     1       48.0356033       20.71931720    0.00000000
                                                     2       19.4541456      195.58677580    0.00000000
                                                     2        4.0512875       48.28771760    0.00000000
                                      D - F
                                                     0       79.9073983        3.00492260    0.00000000
                                                     1       45.8263798       25.93779890    0.00000000
                                                     2       26.9903522      125.12449340    0.00000000
                                                     2        9.6835718       70.76340220    0.00000000
                                                     2        2.7995666       15.04928220    0.00000000
   16          8
                                   No pseudopotential on this center.
   17          8
                                   No pseudopotential on this center.
   18          8
                                   No pseudopotential on this center.
   19          8
                                   No pseudopotential on this center.
   20          8
                                   No pseudopotential on this center.
   21          8
                                   No pseudopotential on this center.
   22          8
                                   No pseudopotential on this center.
   23          8
                                   No pseudopotential on this center.
   24          8
                                   No pseudopotential on this center.
   25          1
                                   No pseudopotential on this center.
   26          1
                                   No pseudopotential on this center.
   27          1
                                   No pseudopotential on this center.
   28          1
                                   No pseudopotential on this center.
   29          1
                                   No pseudopotential on this center.
   30          1
                                   No pseudopotential on this center.
   31          1
                                   No pseudopotential on this center.
   32          1
                                   No pseudopotential on this center.
   33          1
                                   No pseudopotential on this center.
   34          8
                                   No pseudopotential on this center.
   35          1
                                   No pseudopotential on this center.
   36          8
                                   No pseudopotential on this center.
   37          1
                                   No pseudopotential on this center.
   38          8
                                   No pseudopotential on this center.
   39          1
                                   No pseudopotential on this center.
   40          8
                                   No pseudopotential on this center.
   41          1
                                   No pseudopotential on this center.
   42          8
                                   No pseudopotential on this center.
   43          1
                                   No pseudopotential on this center.
   44          8
                                   No pseudopotential on this center.
   45          1
                                   No pseudopotential on this center.
   46          8
                                   No pseudopotential on this center.
   47          1
                                   No pseudopotential on this center.
   48          8
                                   No pseudopotential on this center.
   49          1
                                   No pseudopotential on this center.
   50          8
                                   No pseudopotential on this center.
   51          1
                                   No pseudopotential on this center.
 ======================================================================================================
 There are   637 symmetry adapted cartesian basis functions of A   symmetry.
 There are   600 symmetry adapted basis functions of A   symmetry.
   600 basis functions,  1230 primitive gaussians,   637 cartesian basis functions
   161 alpha electrons      161 beta electrons
       nuclear repulsion energy      5671.7809411676 Hartrees.
 NAtoms=   51 NActive=   51 NUniq=   51 SFac= 1.00D+00 NAtFMM=   60 NAOKFM=F Big=F
 Integral buffers will be    131072 words long.
 Raffenetti 2 integral format.
 Two-electron integral symmetry is turned on.
 One-electron integrals computed using PRISM.
   1 Symmetry operations used in ECPInt.
 ECPInt:  NShTT=   21321 NPrTT=  126439 LenC2=   15404 LenP2D=   51837.
 LDataN:  DoStor=T MaxTD1= 5 Len=  102
 Number of processors reduced to  12 by ecpmxn.
 NBasis=   600 RedAO= T EigKep=  2.63D-03  NBF=   600
 NBsUse=   600 1.00D-06 EigRej= -1.00D+00 NBFU=   600
 Defaulting to unpruned grid for atomic number  40.
 Defaulting to unpruned grid for atomic number  40.
 Defaulting to unpruned grid for atomic number  40.
 ExpMin= 2.43D-02 ExpMax= 1.61D+04 ExpMxC= 2.43D+03 IAcc=3 IRadAn=         5 AccDes= 0.00D+00
 Harris functional with IExCor=  402 and IRadAn=       5 diagonalized for initial guess.
 HarFok:  IExCor=  402 AccDes= 0.00D+00 IRadAn=         5 IDoV= 1 UseB2=F ITyADJ=14
 ICtDFT=  3500011 ScaDFX=  1.000000  1.000000  1.000000  1.000000
 Defaulting to unpruned grid for atomic number  40.
 FoFCou: FMM=F IPFlag=           0 FMFlag=      100000 FMFlg1=           0
         NFxFlg=           0 DoJE=T BraDBF=F KetDBF=T FulRan=T
         wScrn=  0.000000 ICntrl=       500 IOpCl=  0 I1Cent=   200000004 NGrid=           0
         NMat0=    1 NMatS0=      1 NMatT0=    0 NMatD0=    1 NMtDS0=    0 NMtDT0=    0
 Petite list used in FoFCou.
 Requested convergence on RMS density matrix=1.00D-08 within 128 cycles.
 Requested convergence on MAX density matrix=1.00D-06.
 Requested convergence on             energy=1.00D-06.
 No special actions if energy rises.
 Defaulting to unpruned grid for atomic number  40.
 Defaulting to unpruned grid for atomic number  40.
 Defaulting to unpruned grid for atomic number  40.
 Defaulting to unpruned grid for atomic number  40.
 Defaulting to unpruned grid for atomic number  40.
 Defaulting to unpruned grid for atomic number  40.
 Defaulting to unpruned grid for atomic number  40.
 Defaulting to unpruned grid for atomic number  40.
 Defaulting to unpruned grid for atomic number  40.
 Defaulting to unpruned grid for atomic number  40.
 Defaulting to unpruned grid for atomic number  40.
 Defaulting to unpruned grid for atomic number  40.
 Defaulting to unpruned grid for atomic number  40.
 Defaulting to unpruned grid for atomic number  40.
 Defaulting to unpruned grid for atomic number  40.
 Defaulting to unpruned grid for atomic number  40.
 SCF Done:  E(RB3LYP) =  -3237.56542576     A.U. after   17 cycles
            NFock= 17  Conv=0.27D-08     -V/T= 2.0473
 DoSCS=F DFT=T ScalE2(SS,OS)=  1.000000  1.000000
 Range of M.O.s used for correlation:     1   600
 NBasis=   600 NAE=   161 NBE=   161 NFC=     0 NFV=     0
 NROrb=    600 NOA=   161 NOB=   161 NVA=   439 NVB=   439
 PrsmSu:  requested number of processors reduced to:   3 ShMem   1 Linda.
   1 Symmetry operations used in ECPInt.
 ECPInt:  NShTT=   21321 NPrTT=  126439 LenC2=   15404 LenP2D=   51837.
 LDataN:  DoStor=T MaxTD1= 6 Len=  172
 Number of processors reduced to   1 by ecpmxn.
 Symmetrizing basis deriv contribution to polar:
 IMax=3 JMax=2 DiffMx= 0.00D+00
 G2DrvN: will do     5 centers at a time, making   11 passes.
 Calling FoFCou, ICntrl=  3107 FMM=F I1Cent=   0 AccDes= 0.00D+00.
 Defaulting to unpruned grid for atomic number  40.
 Defaulting to unpruned grid for atomic number  40.
 Defaulting to unpruned grid for atomic number  40.
 Defaulting to unpruned grid for atomic number  40.
 Defaulting to unpruned grid for atomic number  40.
 Defaulting to unpruned grid for atomic number  40.
 Defaulting to unpruned grid for atomic number  40.
 Defaulting to unpruned grid for atomic number  40.
 Defaulting to unpruned grid for atomic number  40.
 Defaulting to unpruned grid for atomic number  40.
 Defaulting to unpruned grid for atomic number  40.
 Defaulting to unpruned grid for atomic number  40.
 Defaulting to unpruned grid for atomic number  40.
 Defaulting to unpruned grid for atomic number  40.
 Defaulting to unpruned grid for atomic number  40.
 Defaulting to unpruned grid for atomic number  40.
 Calling FoFCou, ICntrl=  3107 FMM=F I1Cent=   0 AccDes= 0.00D+00.
 Calling FoFCou, ICntrl=  3107 FMM=F I1Cent=   0 AccDes= 0.00D+00.
 Calling FoFCou, ICntrl=  3107 FMM=F I1Cent=   0 AccDes= 0.00D+00.
 Calling FoFCou, ICntrl=  3107 FMM=F I1Cent=   0 AccDes= 0.00D+00.
 Calling FoFCou, ICntrl=  3107 FMM=F I1Cent=   0 AccDes= 0.00D+00.
 Calling FoFCou, ICntrl=  3107 FMM=F I1Cent=   0 AccDes= 0.00D+00.
 Calling FoFCou, ICntrl=  3107 FMM=F I1Cent=   0 AccDes= 0.00D+00.
 Calling FoFCou, ICntrl=  3107 FMM=F I1Cent=   0 AccDes= 0.00D+00.
 Calling FoFCou, ICntrl=  3107 FMM=F I1Cent=   0 AccDes= 0.00D+00.
 Calling FoFCou, ICntrl=  3107 FMM=F I1Cent=   0 AccDes= 0.00D+00.
 End of G2Drv F.D. properties file   721 does not exist.
 End of G2Drv F.D. properties file   722 does not exist.
 End of G2Drv F.D. properties file   788 does not exist.
          IDoAtm=11111111111111111111111111111111111111111111111111
          IDoAtm=1
          Differentiating once with respect to nuclear coordinates.
 Defaulting to unpruned grid for atomic number  40.
 Defaulting to unpruned grid for atomic number  40.
 Defaulting to unpruned grid for atomic number  40.
 CalDSu exits because no D1Ps are significant.
 Defaulting to unpruned grid for atomic number  40.
 Defaulting to unpruned grid for atomic number  40.
 Defaulting to unpruned grid for atomic number  40.
 Defaulting to unpruned grid for atomic number  40.
 Defaulting to unpruned grid for atomic number  40.
 Defaulting to unpruned grid for atomic number  40.
 Defaulting to unpruned grid for atomic number  40.
 Defaulting to unpruned grid for atomic number  40.
 Defaulting to unpruned grid for atomic number  40.
 Defaulting to unpruned grid for atomic number  40.
 Defaulting to unpruned grid for atomic number  40.
 Defaulting to unpruned grid for atomic number  40.
 Defaulting to unpruned grid for atomic number  40.
 Defaulting to unpruned grid for atomic number  40.
 Defaulting to unpruned grid for atomic number  40.
 Defaulting to unpruned grid for atomic number  40.
          There are   156 degrees of freedom in the 1st order CPHF.  IDoFFX=6 NUNeed=     0.
    153 vectors produced by pass  0 Test12= 7.07D-14 1.00D-09 XBig12= 1.66D-01 7.42D-02.
 AX will form    11 AO Fock derivatives at one time.
    153 vectors produced by pass  1 Test12= 7.07D-14 1.00D-09 XBig12= 8.99D-02 2.39D-02.
    153 vectors produced by pass  2 Test12= 7.07D-14 1.00D-09 XBig12= 9.27D-04 2.60D-03.
    151 vectors produced by pass  3 Test12= 7.07D-14 1.00D-09 XBig12= 7.06D-06 1.86D-04.
    150 vectors produced by pass  4 Test12= 7.07D-14 1.00D-09 XBig12= 2.37D-08 9.07D-06.
    146 vectors produced by pass  5 Test12= 7.07D-14 1.00D-09 XBig12= 6.07D-11 4.54D-07.
     59 vectors produced by pass  6 Test12= 7.07D-14 1.00D-09 XBig12= 8.86D-14 1.93D-08.
 InvSVY:  IOpt=1 It=  1 EMax= 5.00D-16
 Solved reduced A of dimension   965 with   156 vectors.
 End of Minotr F.D. properties file   721 does not exist.
 End of Minotr F.D. properties file   722 does not exist.
 End of Minotr F.D. properties file   788 does not exist.

 **********************************************************************

            Population analysis using the SCF Density.

 **********************************************************************

 Orbital symmetries:
       Occupied  (A) (A) (A) (A) (A) (A) (A) (A) (A) (A) (A) (A)
                 (A) (A) (A) (A) (A) (A) (A) (A) (A) (A) (A) (A)
                 (A) (A) (A) (A) (A) (A) (A) (A) (A) (A) (A) (A)
                 (A) (A) (A) (A) (A) (A) (A) (A) (A) (A) (A) (A)
                 (A) (A) (A) (A) (A) (A) (A) (A) (A) (A) (A) (A)
                 (A) (A) (A) (A) (A) (A) (A) (A) (A) (A) (A) (A)
                 (A) (A) (A) (A) (A) (A) (A) (A) (A) (A) (A) (A)
                 (A) (A) (A) (A) (A) (A) (A) (A) (A) (A) (A) (A)
                 (A) (A) (A) (A) (A) (A) (A) (A) (A) (A) (A) (A)
                 (A) (A) (A) (A) (A) (A) (A) (A) (A) (A) (A) (A)
                 (A) (A) (A) (A) (A) (A) (A) (A) (A) (A) (A) (A)
                 (A) (A) (A) (A) (A) (A) (A) (A) (A) (A) (A) (A)
                 (A) (A) (A) (A) (A) (A) (A) (A) (A) (A) (A) (A)
                 (A) (A) (A) (A) (A)
       Virtual   (A) (A) (A) (A) (A) (A) (A) (A) (A) (A) (A) (A)
                 (A) (A) (A) (A) (A) (A) (A) (A) (A) (A) (A) (A)
                 (A) (A) (A) (A) (A) (A) (A) (A) (A) (A) (A) (A)
                 (A) (A) (A) (A) (A) (A) (A) (A) (A) (A) (A) (A)
                 (A) (A) (A) (A) (A) (A) (A) (A) (A) (A) (A) (A)
                 (A) (A) (A) (A) (A) (A) (A) (A) (A) (A) (A) (A)
                 (A) (A) (A) (A) (A) (A) (A) (A) (A) (A) (A) (A)
                 (A) (A) (A) (A) (A) (A) (A) (A) (A) (A) (A) (A)
                 (A) (A) (A) (A) (A) (A) (A) (A) (A) (A) (A) (A)
                 (A) (A) (A) (A) (A) (A) (A) (A) (A) (A) (A) (A)
                 (A) (A) (A) (A) (A) (A) (A) (A) (A) (A) (A) (A)
                 (A) (A) (A) (A) (A) (A) (A) (A) (A) (A) (A) (A)
                 (A) (A) (A) (A) (A) (A) (A) (A) (A) (A) (A) (A)
                 (A) (A) (A) (A) (A) (A) (A) (A) (A) (A) (A) (A)
                 (A) (A) (A) (A) (A) (A) (A) (A) (A) (A) (A) (A)
                 (A) (A) (A) (A) (A) (A) (A) (A) (A) (A) (A) (A)
                 (A) (A) (A) (A) (A) (A) (A) (A) (A) (A) (A) (A)
                 (A) (A) (A) (A) (A) (A) (A) (A) (A) (A) (A) (A)
                 (A) (A) (A) (A) (A) (A) (A) (A) (A) (A) (A) (A)
                 (A) (A) (A) (A) (A) (A) (A) (A) (A) (A) (A) (A)
                 (A) (A) (A) (A) (A) (A) (A) (A) (A) (A) (A) (A)
                 (A) (A) (A) (A) (A) (A) (A) (A) (A) (A) (A) (A)
                 (A) (A) (A) (A) (A) (A) (A) (A) (A) (A) (A) (A)
                 (A) (A) (A) (A) (A) (A) (A) (A) (A) (A) (A) (A)
                 (A) (A) (A) (A) (A) (A) (A) (A) (A) (A) (A) (A)
                 (A) (A) (A) (A) (A) (A) (A) (A) (A) (A) (A) (A)
                 (A) (A) (A) (A) (A) (A) (A) (A) (A) (A) (A) (A)
                 (A) (A) (A) (A) (A) (A) (A) (A) (A) (A) (A) (A)
                 (A) (A) (A) (A) (A) (A) (A) (A) (A) (A) (A) (A)
                 (A) (A) (A) (A) (A) (A) (A) (A) (A) (A) (A) (A)
                 (A) (A) (A) (A) (A) (A) (A) (A) (A) (A) (A) (A)
                 (A) (A) (A) (A) (A) (A) (A) (A) (A) (A) (A) (A)
                 (A) (A) (A) (A) (A) (A) (A) (A) (A) (A) (A) (A)
                 (A) (A) (A) (A) (A) (A) (A) (A) (A) (A) (A) (A)
                 (A) (A) (A) (A) (A) (A) (A) (A) (A) (A) (A) (A)
                 (A) (A) (A) (A) (A) (A) (A) (A) (A) (A) (A) (A)
                 (A) (A) (A) (A) (A) (A) (A)
 The electronic state is 1-A.
 Alpha  occ. eigenvalues --  -66.21847 -66.21796 -66.21292 -66.20066 -19.17144
 Alpha  occ. eigenvalues --  -19.16839 -19.16381 -19.16205 -19.16154 -19.15778
 Alpha  occ. eigenvalues --  -19.15674 -19.15577 -19.15525 -19.15496 -19.15461
 Alpha  occ. eigenvalues --  -19.15449 -19.14976 -19.14707 -19.14549 -19.14472
 Alpha  occ. eigenvalues --  -19.14431 -19.14324 -19.14205 -19.13976 -19.13130
 Alpha  occ. eigenvalues --  -19.13100 -19.12539 -19.11696 -19.11571  -5.36028
 Alpha  occ. eigenvalues --   -5.35817  -5.35475  -5.34275  -3.71992  -3.71966
 Alpha  occ. eigenvalues --   -3.71937  -3.71846  -3.71778  -3.71706  -3.71530
 Alpha  occ. eigenvalues --   -3.71396  -3.71323  -3.70270  -3.70224  -3.70148
 Alpha  occ. eigenvalues --   -2.08043  -2.07050  -2.06499  -2.04900  -1.29106
 Alpha  occ. eigenvalues --   -1.28695  -1.28281  -1.28060  -1.27954  -1.27420
 Alpha  occ. eigenvalues --   -1.27337  -1.26739  -1.26662  -1.25551  -1.25322
 Alpha  occ. eigenvalues --   -1.24901  -1.05211  -1.04262  -1.02966  -1.01862
 Alpha  occ. eigenvalues --   -1.01334  -1.01136  -1.00910  -0.99635  -0.99446
 Alpha  occ. eigenvalues --   -0.98664  -0.98433  -0.98317  -0.97803  -0.97314
 Alpha  occ. eigenvalues --   -0.96839  -0.96173  -0.95394  -0.94886  -0.94667
 Alpha  occ. eigenvalues --   -0.93741  -0.93473  -0.91956  -0.90810  -0.89529
 Alpha  occ. eigenvalues --   -0.88211  -0.61514  -0.59521  -0.58707  -0.55814
 Alpha  occ. eigenvalues --   -0.54341  -0.53487  -0.52145  -0.51956  -0.51279
 Alpha  occ. eigenvalues --   -0.51227  -0.50981  -0.50937  -0.50826  -0.50613
 Alpha  occ. eigenvalues --   -0.50120  -0.48962  -0.48946  -0.47462  -0.46725
 Alpha  occ. eigenvalues --   -0.45569  -0.45381  -0.44448  -0.42715  -0.42012
 Alpha  occ. eigenvalues --   -0.41370  -0.41264  -0.40504  -0.40137  -0.40065
 Alpha  occ. eigenvalues --   -0.39739  -0.39441  -0.39059  -0.38815  -0.38291
 Alpha  occ. eigenvalues --   -0.37694  -0.37405  -0.37236  -0.37095  -0.36748
 Alpha  occ. eigenvalues --   -0.36563  -0.36066  -0.35851  -0.35753  -0.35554
 Alpha  occ. eigenvalues --   -0.35276  -0.35102  -0.35020  -0.34826  -0.34787
 Alpha  occ. eigenvalues --   -0.34631  -0.34267  -0.34190  -0.34064  -0.33893
 Alpha  occ. eigenvalues --   -0.33685  -0.33459  -0.33308  -0.33003  -0.32929
 Alpha  occ. eigenvalues --   -0.32783  -0.32455  -0.32393  -0.32083  -0.31881
 Alpha  occ. eigenvalues --   -0.31743  -0.31693  -0.31543  -0.31106  -0.30996
 Alpha  occ. eigenvalues --   -0.30791  -0.30633  -0.30084  -0.29315  -0.28991
 Alpha  occ. eigenvalues --   -0.28389
 Alpha virt. eigenvalues --   -0.04878  -0.04546  -0.04182  -0.03268  -0.02758
 Alpha virt. eigenvalues --   -0.02521  -0.01844  -0.01554  -0.01237  -0.00990
 Alpha virt. eigenvalues --   -0.00650  -0.00475  -0.00185   0.00180   0.00470
 Alpha virt. eigenvalues --    0.00674   0.00871   0.01511   0.01642   0.01926
 Alpha virt. eigenvalues --    0.02365   0.02715   0.02798   0.03049   0.03294
 Alpha virt. eigenvalues --    0.03959   0.04160   0.04379   0.05183   0.05609
 Alpha virt. eigenvalues --    0.05845   0.05947   0.06392   0.06745   0.07226
 Alpha virt. eigenvalues --    0.08171   0.08415   0.08773   0.09729   0.10388
 Alpha virt. eigenvalues --    0.10682   0.11382   0.12111   0.12578   0.12998
 Alpha virt. eigenvalues --    0.13632   0.13934   0.14675   0.15109   0.15371
 Alpha virt. eigenvalues --    0.15905   0.16171   0.16683   0.16841   0.16946
 Alpha virt. eigenvalues --    0.17533   0.17991   0.18281   0.18584   0.18758
 Alpha virt. eigenvalues --    0.19219   0.19587   0.19883   0.20388   0.20931
 Alpha virt. eigenvalues --    0.21083   0.21277   0.21574   0.22212   0.22275
 Alpha virt. eigenvalues --    0.22682   0.22756   0.22916   0.23341   0.24152
 Alpha virt. eigenvalues --    0.24236   0.24511   0.24789   0.25017   0.25633
 Alpha virt. eigenvalues --    0.26022   0.26543   0.26890   0.27339   0.27754
 Alpha virt. eigenvalues --    0.28331   0.28702   0.29434   0.30022   0.30208
 Alpha virt. eigenvalues --    0.30598   0.31195   0.31554   0.32117   0.32826
 Alpha virt. eigenvalues --    0.33421   0.33837   0.34206   0.34664   0.35247
 Alpha virt. eigenvalues --    0.36178   0.36789   0.37052   0.37679   0.38169
 Alpha virt. eigenvalues --    0.38556   0.39570   0.40990   0.41305   0.41908
 Alpha virt. eigenvalues --    0.42420   0.44726   0.45282   0.46619   0.47021
 Alpha virt. eigenvalues --    0.49418   0.50047   0.52260   0.55597   0.56570
 Alpha virt. eigenvalues --    0.58498   0.59661   0.60495   0.64820   0.66733
 Alpha virt. eigenvalues --    0.67542   0.76404   0.76771   0.78524   0.80035
 Alpha virt. eigenvalues --    0.80279   0.81006   0.81084   0.82285   0.83701
 Alpha virt. eigenvalues --    0.83927   0.84323   0.84739   0.85830   0.86488
 Alpha virt. eigenvalues --    0.87057   0.87791   0.88901   0.89655   0.90523
 Alpha virt. eigenvalues --    0.90971   0.91741   0.92297   0.92603   0.93439
 Alpha virt. eigenvalues --    0.93809   0.93991   0.94528   0.94819   0.95587
 Alpha virt. eigenvalues --    0.96410   0.96618   0.96846   0.97470   0.97545
 Alpha virt. eigenvalues --    0.97874   0.98261   0.98555   0.98637   0.99138
 Alpha virt. eigenvalues --    0.99465   0.99839   1.00746   1.00897   1.01319
 Alpha virt. eigenvalues --    1.02391   1.02954   1.03368   1.03576   1.04093
 Alpha virt. eigenvalues --    1.04875   1.05766   1.05823   1.06246   1.06818
 Alpha virt. eigenvalues --    1.07368   1.07815   1.08198   1.08836   1.09007
 Alpha virt. eigenvalues --    1.09557   1.09784   1.10711   1.10777   1.10933
 Alpha virt. eigenvalues --    1.12183   1.12647   1.13716   1.13876   1.14268
 Alpha virt. eigenvalues --    1.15023   1.15742   1.16379   1.16743   1.17352
 Alpha virt. eigenvalues --    1.17758   1.18372   1.18692   1.19178   1.19601
 Alpha virt. eigenvalues --    1.19900   1.20099   1.20874   1.21261   1.21818
 Alpha virt. eigenvalues --    1.22184   1.22979   1.23193   1.24185   1.24521
 Alpha virt. eigenvalues --    1.25569   1.26185   1.26725   1.27706   1.28078
 Alpha virt. eigenvalues --    1.29271   1.29586   1.30591   1.31259   1.32389
 Alpha virt. eigenvalues --    1.34021   1.34518   1.35345   1.36981   1.37941
 Alpha virt. eigenvalues --    1.42375   1.44126   1.45085   1.45669   1.47113
 Alpha virt. eigenvalues --    1.48107   1.49341   1.50703   1.50957   1.51438
 Alpha virt. eigenvalues --    1.52315   1.52878   1.53825   1.54085   1.54299
 Alpha virt. eigenvalues --    1.55077   1.55653   1.55944   1.56528   1.56767
 Alpha virt. eigenvalues --    1.56991   1.57613   1.57882   1.58193   1.58826
 Alpha virt. eigenvalues --    1.58925   1.59180   1.59469   1.60086   1.60358
 Alpha virt. eigenvalues --    1.61221   1.61497   1.61588   1.62546   1.62812
 Alpha virt. eigenvalues --    1.63216   1.63656   1.63989   1.64546   1.64572
 Alpha virt. eigenvalues --    1.65400   1.65777   1.66134   1.66444   1.67021
 Alpha virt. eigenvalues --    1.67591   1.68187   1.68670   1.70022   1.70882
 Alpha virt. eigenvalues --    1.71065   1.71645   1.72042   1.72629   1.72770
 Alpha virt. eigenvalues --    1.73261   1.73640   1.74318   1.75101   1.75606
 Alpha virt. eigenvalues --    1.75855   1.76591   1.77196   1.77643   1.77894
 Alpha virt. eigenvalues --    1.78319   1.78539   1.78687   1.79010   1.79530
 Alpha virt. eigenvalues --    1.79679   1.80503   1.80859   1.81338   1.81563
 Alpha virt. eigenvalues --    1.82055   1.82134   1.82553   1.82918   1.83112
 Alpha virt. eigenvalues --    1.83474   1.83567   1.84531   1.85039   1.85504
 Alpha virt. eigenvalues --    1.85731   1.85881   1.86313   1.86829   1.87013
 Alpha virt. eigenvalues --    1.87396   1.87806   1.88122   1.88845   1.89420
 Alpha virt. eigenvalues --    1.90306   1.91155   1.91263   1.91745   1.92753
 Alpha virt. eigenvalues --    1.92855   1.93415   1.94556   1.95283   1.97203
 Alpha virt. eigenvalues --    1.97718   1.98584   1.99581   2.01270   2.01738
 Alpha virt. eigenvalues --    2.04623   2.05641   2.08929   2.09362   2.11832
 Alpha virt. eigenvalues --    2.15309   2.19766   2.32186   2.33403   2.34231
 Alpha virt. eigenvalues --    2.34384   2.34406   2.34681   2.35941   2.36575
 Alpha virt. eigenvalues --    2.36896   2.38019   2.38198   2.39251   2.39799
 Alpha virt. eigenvalues --    2.40981   2.41139   2.42001   2.42413   2.42785
 Alpha virt. eigenvalues --    2.44691   2.45568   2.47614   2.50069   2.52367
 Alpha virt. eigenvalues --    2.55570   2.56576   2.58269   2.58933   2.59268
 Alpha virt. eigenvalues --    2.60005   2.60991   2.61092   2.61445   2.61747
 Alpha virt. eigenvalues --    2.61888   2.62245   2.62510   2.62717   2.62800
 Alpha virt. eigenvalues --    2.63040   2.63096   2.63259   2.63519   2.63835
 Alpha virt. eigenvalues --    2.63889   2.64904   2.65135   2.65399   2.65640
 Alpha virt. eigenvalues --    2.66805   2.67131   2.67251   2.67825   2.69460
 Alpha virt. eigenvalues --    2.70224   2.70556   2.71032   2.71862   2.73329
 Alpha virt. eigenvalues --    2.74120   2.75474   2.76783   2.77028   2.77501
 Alpha virt. eigenvalues --    2.77658   2.78539   2.81694   2.82651   2.84950
 Alpha virt. eigenvalues --    2.86906   2.93162   3.38220   3.39852   3.41079
 Alpha virt. eigenvalues --    3.41480   3.41898   3.42934   3.43442   3.44998
 Alpha virt. eigenvalues --    3.46075   3.46429   3.46911   3.49078   3.49302
 Alpha virt. eigenvalues --    3.49537   3.51863   3.53242   3.55223   3.55969
 Alpha virt. eigenvalues --    4.78146   6.30552   6.69218   7.83273
          Condensed to atoms (all electrons):
 Mulliken charges:
               1
     1  Si   1.297545
     2  O   -0.652267
     3  O   -0.650476
     4  O   -0.653457
     5  O   -0.755568
     6  Zr   1.616409
     7  Si   1.125972
     8  Si   1.162683
     9  Si   1.135307
    10  O   -0.822360
    11  Zr   1.493226
    12  O   -0.861337
    13  Zr   1.588326
    14  O   -0.828075
    15  Zr   1.553991
    16  O   -0.624421
    17  O   -0.575315
    18  O   -0.669113
    19  O   -0.625308
    20  O   -0.609025
    21  O   -0.641151
    22  O   -0.579119
    23  O   -0.652561
    24  O   -0.615047
    25  H    0.353184
    26  H    0.334144
    27  H    0.366363
    28  H    0.373209
    29  H    0.365381
    30  H    0.338718
    31  H    0.337049
    32  H    0.377117
    33  H    0.340244
    34  O   -0.695591
    35  H    0.332535
    36  O   -0.707429
    37  H    0.363770
    38  O   -0.748247
    39  H    0.328886
    40  O   -0.763397
    41  H    0.378226
    42  O   -0.694518
    43  H    0.337821
    44  O   -0.701039
    45  H    0.336216
    46  O   -0.762766
    47  H    0.380278
    48  O   -0.744681
    49  H    0.339576
    50  O   -0.691882
    51  H    0.367977
 Sum of Mulliken charges =  -0.00000
 Mulliken charges with hydrogens summed into heavy atoms:
               1
     1  Si   1.297545
     2  O   -0.652267
     3  O   -0.650476
     4  O   -0.653457
     5  O   -0.755568
     6  Zr   1.616409
     7  Si   1.125972
     8  Si   1.162683
     9  Si   1.135307
    10  O   -0.822360
    11  Zr   1.493226
    12  O   -0.861337
    13  Zr   1.588326
    14  O   -0.828075
    15  Zr   1.553991
    16  O   -0.285703
    17  O   -0.238266
    18  O   -0.303733
    19  O   -0.285064
    20  O   -0.235817
    21  O   -0.264034
    22  O   -0.244975
    23  O   -0.299377
    24  O   -0.248684
    34  O   -0.363056
    36  O   -0.343660
    38  O   -0.419360
    40  O   -0.385171
    42  O   -0.356697
    44  O   -0.364823
    46  O   -0.382488
    48  O   -0.405105
    50  O   -0.323905
 APT charges:
               1
     1  Si   0.610951
     2  O   -0.962637
     3  O   -0.852094
     4  O   -0.763994
     5  O   -1.074866
     6  Zr   1.790651
     7  Si   0.775571
     8  Si   0.842291
     9  Si   0.738180
    10  O   -0.935691
    11  Zr   1.821895
    12  O   -0.999612
    13  Zr   1.873123
    14  O   -0.965865
    15  Zr   1.795078
    16  O   -0.742102
    17  O    0.215137
    18  O   -0.664146
    19  O   -1.474903
    20  O   -0.491761
    21  O   -0.377453
    22  O    0.050803
    23  O   -0.763957
    24  O   -0.395326
    25  H    0.866639
    26  H    0.270462
    27  H    0.082546
    28  H    0.731930
    29  H    0.517062
    30  H    0.954418
    31  H    0.036444
    32  H   -0.003590
    33  H    1.409414
    34  O   -1.631292
    35  H    1.226960
    36  O   -0.715666
    37  H    0.349208
    38  O   -1.837175
    39  H    1.273833
    40  O   -0.807284
    41  H    0.339797
    42  O   -1.859207
    43  H    1.476170
    44  O   -1.619804
    45  H    1.259944
    46  O   -1.364975
    47  H    0.872138
    48  O   -1.810294
    49  H    1.297098
    50  O   -0.747768
    51  H    0.383717
 Sum of APT charges =  -0.00000
 APT charges with hydrogens summed into heavy atoms:
               1
     1  Si   0.610951
     2  O   -0.962637
     3  O   -0.852094
     4  O   -0.763994
     5  O   -1.074866
     6  Zr   1.790651
     7  Si   0.775571
     8  Si   0.842291
     9  Si   0.738180
    10  O   -0.935691
    11  Zr   1.821895
    12  O   -0.999612
    13  Zr   1.873123
    14  O   -0.965865
    15  Zr   1.795078
    16  O    0.212316
    17  O    0.251581
    18  O   -0.147084
    19  O   -0.065489
    20  O    0.240168
    21  O   -0.381043
    22  O    0.321265
    23  O    0.102682
    24  O   -0.312780
    34  O   -0.404332
    36  O   -0.366458
    38  O   -0.563341
    40  O   -0.467487
    42  O   -0.383037
    44  O   -0.359860
    46  O   -0.492837
    48  O   -0.513196
    50  O   -0.364051
 Electronic spatial extent (au):  <R**2>=          25003.0640
 Charge=              0.0000 electrons
 Dipole moment (field-independent basis, Debye):
    X=              2.8826    Y=              5.3473    Z=              0.7128  Tot=              6.1165
 Quadrupole moment (field-independent basis, Debye-Ang):
   XX=           -291.5920   YY=           -257.8066   ZZ=           -258.7231
   XY=              8.4893   XZ=              7.5140   YZ=             -7.8823
 Traceless Quadrupole moment (field-independent basis, Debye-Ang):
   XX=            -22.2181   YY=             11.5673   ZZ=             10.6508
   XY=              8.4893   XZ=              7.5140   YZ=             -7.8823
 Octapole moment (field-independent basis, Debye-Ang**2):
  XXX=            339.4215  YYY=            125.8336  ZZZ=            -54.9768  XYY=            183.3691
  XXY=             91.6526  XXZ=            -18.5039  XZZ=            132.6890  YZZ=             18.9332
  YYZ=             -9.5670  XYZ=             66.5822
 Hexadecapole moment (field-independent basis, Debye-Ang**3):
 XXXX=         -22698.5244 YYYY=          -5591.7428 ZZZZ=          -4859.2260 XXXY=            265.4469
 XXXZ=             10.9787 YYYX=            203.5494 YYYZ=             58.7159 ZZZX=             21.7796
 ZZZY=            -78.5438 XXYY=          -4537.4547 XXZZ=          -3773.6650 YYZZ=          -1719.2656
 XXYZ=           -487.1825 YYXZ=           -123.2587 ZZXY=            197.9916
 N-N= 5.671780941168D+03 E-N=-1.894454209994D+04  KE= 3.091320783110D+03
  Exact polarizability:   0.000   0.000   0.000   0.000   0.000   0.000
 Approx polarizability: 412.533   2.901 423.818  -6.202   5.821 414.032
   1 Symmetry operations used in ECPInt.
 ECPInt:  NShTT=   21321 NPrTT=  126439 LenC2=   15404 LenP2D=   51837.
 LDataN:  DoStor=T MaxTD1= 7 Len=  274
 Number of processors reduced to  13 by ecpmxn.
 Calling FoFJK, ICntrl=    100147 FMM=F ISym2X=0 I1Cent= 0 IOpClX= 0 NMat=1 NMatS=1 NMatT=0.
 Defaulting to unpruned grid for atomic number  40.
 Defaulting to unpruned grid for atomic number  40.
 Defaulting to unpruned grid for atomic number  40.
 Defaulting to unpruned grid for atomic number  40.
 Defaulting to unpruned grid for atomic number  40.
 Defaulting to unpruned grid for atomic number  40.
 Defaulting to unpruned grid for atomic number  40.
 Defaulting to unpruned grid for atomic number  40.
 Defaulting to unpruned grid for atomic number  40.
 Defaulting to unpruned grid for atomic number  40.
 Defaulting to unpruned grid for atomic number  40.
 Defaulting to unpruned grid for atomic number  40.
 Defaulting to unpruned grid for atomic number  40.
 Defaulting to unpruned grid for atomic number  40.
 Defaulting to unpruned grid for atomic number  40.
 Defaulting to unpruned grid for atomic number  40.
 ***** Axes restored to original set *****
 -------------------------------------------------------------------
 Center     Atomic                   Forces (Hartrees/Bohr)
 Number     Number              X              Y              Z
 -------------------------------------------------------------------
      1       14          -0.001703596   -0.002075295   -0.000536436
      2        8          -0.000573622    0.000489073    0.002786363
      3        8          -0.001495957    0.000561972   -0.000586999
      4        8           0.000304076    0.000925884    0.000671825
      5        8           0.000370527    0.000717840   -0.001297430
      6       40          -0.009068790   -0.009869140    0.007404643
      7       14           0.004692090   -0.006506170   -0.002960546
      8       14           0.002444390    0.001880912    0.004405914
      9       14          -0.001271146    0.001967885   -0.002209778
     10        8           0.001364661   -0.001349579   -0.002094235
     11       40          -0.000575438   -0.004497984    0.004711213
     12        8           0.000586031    0.000726324   -0.001885987
     13       40          -0.000451008   -0.001520690   -0.001632050
     14        8           0.009511644    0.010927829   -0.002762848
     15       40          -0.001125639   -0.001641584   -0.000505005
     16        8          -0.000763476    0.000688635   -0.003917685
     17        8           0.001020687   -0.000058905   -0.000366066
     18        8          -0.000790011   -0.003234368   -0.002281611
     19        8           0.006383886    0.006787078   -0.008759745
     20        8          -0.008106114    0.002553072   -0.003231491
     21        8          -0.008009497   -0.003116744    0.005332122
     22        8           0.003587692   -0.000885770   -0.001935589
     23        8           0.003343300   -0.004008370    0.004581343
     24        8          -0.000281758   -0.001944876    0.000445465
     25        1          -0.002380161    0.003742028   -0.004226599
     26        1          -0.003151192    0.001024732    0.002156243
     27        1           0.000925855    0.000701392    0.001168838
     28        1           0.005515351   -0.000664782    0.003848123
     29        1           0.000748447    0.002802840    0.001435633
     30        1          -0.000367794   -0.001397392    0.001818693
     31        1          -0.001075202   -0.000922250   -0.000342199
     32        1           0.007041171    0.004098570   -0.005653397
     33        1          -0.007123376   -0.003679137    0.009170286
     34        8           0.001712832    0.000962433   -0.004951164
     35        1          -0.001716713   -0.001039088    0.002085723
     36        8           0.000616705    0.002333936    0.001720045
     37        1          -0.000214134   -0.001175708   -0.001992215
     38        8          -0.000667090    0.008665948    0.002567757
     39        1           0.000674551   -0.005780570   -0.003834298
     40        8          -0.003188949   -0.004662539    0.017568855
     41        1           0.002842042    0.004325894   -0.015928368
     42        8           0.004865857    0.009071404   -0.011141223
     43        1          -0.004746875   -0.008237790    0.011364975
     44        8           0.000517124    0.000015240   -0.000210385
     45        1          -0.000164082    0.000230912   -0.000078284
     46        8          -0.000717171    0.002897239    0.001254442
     47        1           0.000370562   -0.001530912   -0.000431274
     48        8          -0.000507606   -0.000126709   -0.003705247
     49        1           0.001091126    0.000926253    0.002598640
     50        8          -0.001268076    0.000421172    0.000840458
     51        1           0.000973867   -0.000520145   -0.000479443
 -------------------------------------------------------------------
 Cartesian Forces:  Max     0.017568855 RMS     0.004249201
 FormGI is forming the generalized inverse of G from B-inverse, IUseBI=4.

 GradGradGradGradGradGradGradGradGradGradGradGradGradGradGradGradGradGrad
 Berny optimization.
 Internal  Forces:  Max     0.016742334 RMS     0.002524167
 Search for a local minimum.
 Step number   1 out of a maximum of  227
 All quantities printed in internal units (Hartrees-Bohrs-Radians)
 Mixed Optimization -- RFO/linear search
 Second derivative matrix not updated -- analytic derivatives used.
 ITU=  0
     Eigenvalues ---   -0.00050   0.00027   0.00041   0.00052   0.00062
     Eigenvalues ---    0.00079   0.00096   0.00098   0.00111   0.00128
     Eigenvalues ---    0.00143   0.00163   0.00164   0.00202   0.00234
     Eigenvalues ---    0.00278   0.00291   0.00314   0.00322   0.00414
     Eigenvalues ---    0.00499   0.00584   0.00641   0.00750   0.00864
     Eigenvalues ---    0.01102   0.01191   0.01421   0.01654   0.02005
     Eigenvalues ---    0.02567   0.02659   0.02846   0.03141   0.03493
     Eigenvalues ---    0.03589   0.03694   0.03929   0.04072   0.04415
     Eigenvalues ---    0.04587   0.04887   0.04912   0.05140   0.05359
     Eigenvalues ---    0.05458   0.05622   0.05774   0.05989   0.06067
     Eigenvalues ---    0.06391   0.06502   0.06625   0.06880   0.06915
     Eigenvalues ---    0.07181   0.07473   0.07675   0.07850   0.07982
     Eigenvalues ---    0.08229   0.08464   0.08737   0.09039   0.09194
     Eigenvalues ---    0.09738   0.10052   0.10134   0.10223   0.10617
     Eigenvalues ---    0.10784   0.11158   0.11398   0.11466   0.11935
     Eigenvalues ---    0.12092   0.12403   0.12764   0.12977   0.13185
     Eigenvalues ---    0.14515   0.14878   0.15792   0.15976   0.16891
     Eigenvalues ---    0.17823   0.18596   0.19046   0.19865   0.20279
     Eigenvalues ---    0.21036   0.22708   0.22723   0.23406   0.24775
     Eigenvalues ---    0.25349   0.25780   0.27078   0.28414   0.28757
     Eigenvalues ---    0.29167   0.29621   0.30072   0.30558   0.31044
     Eigenvalues ---    0.31167   0.32208   0.32611   0.33346   0.34266
     Eigenvalues ---    0.34393   0.34613   0.34732   0.35142   0.36253
     Eigenvalues ---    0.37387   0.38324   0.38553   0.39581   0.41553
     Eigenvalues ---    0.44104   0.45723   0.46364   0.46830   0.47701
     Eigenvalues ---    0.48119   0.50578   0.50584   0.52180   0.52729
     Eigenvalues ---    0.53148   0.53524   0.54132   0.54170   0.54502
     Eigenvalues ---    0.55773   0.57062   0.57210   0.58946   0.67820
     Eigenvalues ---    0.87486   1.03132   1.15933   1.32798   1.60224
     Eigenvalues ---    2.09744   3.35030
 RFO step:  Lambda=-3.72353395D-03 EMin=-4.98612721D-04
 Linear search not attempted -- first point.
 Maximum step size (   0.300) exceeded in Quadratic search.
    -- Step size scaled by   0.464
 Iteration  1 RMS(Cart)=  0.02558648 RMS(Int)=  0.00516032
 Iteration  2 RMS(Cart)=  0.00813431 RMS(Int)=  0.00025333
 Iteration  3 RMS(Cart)=  0.00027094 RMS(Int)=  0.00000694
 Iteration  4 RMS(Cart)=  0.00000029 RMS(Int)=  0.00000694
 Variable       Old X    -DE/DX   Delta X   Delta X   Delta X     New X
                                 (Linear)    (Quad)   (Total)
    R1        3.09764   0.00049   0.00000   0.00057   0.00057   3.09821
    R2        3.12390   0.00043   0.00000   0.00067   0.00067   3.12458
    R3        3.10469  -0.00190   0.00000  -0.00310  -0.00310   3.10159
    R4        3.06013   0.00131   0.00000   0.00264   0.00264   3.06277
    R5        3.08422  -0.00214   0.00000  -0.00267  -0.00267   3.08155
    R6        3.11837  -0.00104   0.00000  -0.00076  -0.00076   3.11760
    R7        3.14275  -0.00096   0.00000  -0.00003  -0.00003   3.14272
    R8        3.80567   0.00090   0.00000  -0.00144  -0.00144   3.80423
    R9        3.64519   0.00270   0.00000   0.00150   0.00150   3.64669
   R10        3.84919  -0.00358   0.00000  -0.01021  -0.01021   3.83898
   R11        3.65292   0.01324   0.00000   0.02712   0.02712   3.68005
   R12        3.16179  -0.00271   0.00000  -0.00544  -0.00544   3.15635
   R13        3.07264   0.00315   0.00000   0.00486   0.00486   3.07750
   R14        3.12480  -0.00095   0.00000  -0.00180  -0.00180   3.12300
   R15        3.12041   0.00245   0.00000   0.00405   0.00405   3.12446
   R16        3.09838  -0.00113   0.00000  -0.00157  -0.00157   3.09680
   R17        3.13163  -0.00033   0.00000  -0.00212  -0.00212   3.12950
   R18        3.09961  -0.00034   0.00000  -0.00099  -0.00099   3.09863
   R19        3.15267  -0.00083   0.00000  -0.00210  -0.00210   3.15057
   R20        3.06341   0.00212   0.00000   0.00327   0.00327   3.06668
   R21        3.84175   0.00017   0.00000   0.00151   0.00151   3.84326
   R22        3.70828   0.00277   0.00000   0.00450   0.00450   3.71277
   R23        3.67580   0.00093   0.00000  -0.00081  -0.00081   3.67499
   R24        3.85654  -0.00314   0.00000  -0.00871  -0.00871   3.84783
   R25        3.71548  -0.00146   0.00000   0.00394   0.00394   3.71942
   R26        3.79093  -0.00159   0.00000  -0.00564  -0.00564   3.78529
   R27        3.79243   0.00058   0.00000  -0.00210  -0.00210   3.79033
   R28        3.66695   0.00047   0.00000   0.00064   0.00064   3.66759
   R29        3.77901  -0.00098   0.00000  -0.00924  -0.00924   3.76977
   R30        3.74548   0.00103   0.00000   0.00389   0.00389   3.74936
   R31        3.68832  -0.00007   0.00000   0.00911   0.00911   3.69742
   R32        3.66260   0.00004   0.00000  -0.00078  -0.00078   3.66181
   R33        1.82564  -0.00232   0.00000  -0.00204  -0.00204   1.82359
   R34        1.82304  -0.00143   0.00000  -0.00117  -0.00117   1.82187
   R35        1.86083  -0.00323   0.00000  -0.00369  -0.00369   1.85714
[...]
     49          1           0        3.815498    0.580489    3.874641
     50          8           0        0.970259   -1.559602    3.865655
     51          1           0        0.013479   -1.431730    3.997733
 ---------------------------------------------------------------------
 Rotational constants (GHZ):           0.0870920           0.0387450           0.0365574

 **********************************************************************

            Population analysis using the SCF Density.

 **********************************************************************

 Orbital symmetries:
       Occupied  (A) (A) (A) (A) (A) (A) (A) (A) (A) (A) (A) (A)
                 (A) (A) (A) (A) (A) (A) (A) (A) (A) (A) (A) (A)
                 (A) (A) (A) (A) (A) (A) (A) (A) (A) (A) (A) (A)
                 (A) (A) (A) (A) (A) (A) (A) (A) (A) (A) (A) (A)
                 (A) (A) (A) (A) (A) (A) (A) (A) (A) (A) (A) (A)
                 (A) (A) (A) (A) (A) (A) (A) (A) (A) (A) (A) (A)
                 (A) (A) (A) (A) (A) (A) (A) (A) (A) (A) (A) (A)
                 (A) (A) (A) (A) (A) (A) (A) (A) (A) (A) (A) (A)
                 (A) (A) (A) (A) (A) (A) (A) (A) (A) (A) (A) (A)
                 (A) (A) (A) (A) (A) (A) (A) (A) (A) (A) (A) (A)
                 (A) (A) (A) (A) (A) (A) (A) (A) (A) (A) (A) (A)
                 (A) (A) (A) (A) (A) (A) (A) (A) (A) (A) (A) (A)
                 (A) (A) (A) (A) (A) (A) (A) (A) (A) (A) (A) (A)
                 (A) (A) (A) (A) (A)
       Virtual   (A) (A) (A) (A) (A) (A) (A) (A) (A) (A) (A) (A)
                 (A) (A) (A) (A) (A) (A) (A) (A) (A) (A) (A) (A)
                 (A) (A) (A) (A) (A) (A) (A) (A) (A) (A) (A) (A)
                 (A) (A) (A) (A) (A) (A) (A) (A) (A) (A) (A) (A)
                 (A) (A) (A) (A) (A) (A) (A) (A) (A) (A) (A) (A)
                 (A) (A) (A) (A) (A) (A) (A) (A) (A) (A) (A) (A)
                 (A) (A) (A) (A) (A) (A) (A) (A) (A) (A) (A) (A)
                 (A) (A) (A) (A) (A) (A) (A) (A) (A) (A) (A) (A)
                 (A) (A) (A) (A) (A) (A) (A) (A) (A) (A) (A) (A)
                 (A) (A) (A) (A) (A) (A) (A) (A) (A) (A) (A) (A)
                 (A) (A) (A) (A) (A) (A) (A) (A) (A) (A) (A) (A)
                 (A) (A) (A) (A) (A) (A) (A) (A) (A) (A) (A) (A)
                 (A) (A) (A) (A) (A) (A) (A) (A) (A) (A) (A) (A)
                 (A) (A) (A) (A) (A) (A) (A) (A) (A) (A) (A) (A)
                 (A) (A) (A) (A) (A) (A) (A) (A) (A) (A) (A) (A)
                 (A) (A) (A) (A) (A) (A) (A) (A) (A) (A) (A) (A)
                 (A) (A) (A) (A) (A) (A) (A) (A) (A) (A) (A) (A)
                 (A) (A) (A) (A) (A) (A) (A) (A) (A) (A) (A) (A)
                 (A) (A) (A) (A) (A) (A) (A) (A) (A) (A) (A) (A)
                 (A) (A) (A) (A) (A) (A) (A) (A) (A) (A) (A) (A)
                 (A) (A) (A) (A) (A) (A) (A) (A) (A) (A) (A) (A)
                 (A) (A) (A) (A) (A) (A) (A) (A) (A) (A) (A) (A)
                 (A) (A) (A) (A) (A) (A) (A) (A) (A) (A) (A) (A)
                 (A) (A) (A) (A) (A) (A) (A) (A) (A) (A) (A) (A)
                 (A) (A) (A) (A) (A) (A) (A) (A) (A) (A) (A) (A)
                 (A) (A) (A) (A) (A) (A) (A) (A) (A) (A) (A) (A)
                 (A) (A) (A) (A) (A) (A) (A) (A) (A) (A) (A) (A)
                 (A) (A) (A) (A) (A) (A) (A) (A) (A) (A) (A) (A)
                 (A) (A) (A) (A) (A) (A) (A) (A) (A) (A) (A) (A)
                 (A) (A) (A) (A) (A) (A) (A) (A) (A) (A) (A) (A)
                 (A) (A) (A) (A) (A) (A) (A) (A) (A) (A) (A) (A)
                 (A) (A) (A) (A) (A) (A) (A) (A) (A) (A) (A) (A)
                 (A) (A) (A) (A) (A) (A) (A) (A) (A) (A) (A) (A)
                 (A) (A) (A) (A) (A) (A) (A) (A) (A) (A) (A) (A)
                 (A) (A) (A) (A) (A) (A) (A) (A) (A) (A) (A) (A)
                 (A) (A) (A) (A) (A) (A) (A) (A) (A) (A) (A) (A)
                 (A) (A) (A) (A) (A) (A) (A)
 The electronic state is 1-A.
 Alpha  occ. eigenvalues --  -66.22066 -66.21853 -66.21370 -66.20202 -19.17127
 Alpha  occ. eigenvalues --  -19.17043 -19.16398 -19.16362 -19.16151 -19.16018
 Alpha  occ. eigenvalues --  -19.15856 -19.15822 -19.15735 -19.15725 -19.15547
 Alpha  occ. eigenvalues --  -19.15264 -19.15157 -19.14692 -19.14584 -19.14311
 Alpha  occ. eigenvalues --  -19.14284 -19.14274 -19.14244 -19.14103 -19.13391
 Alpha  occ. eigenvalues --  -19.13198 -19.12577 -19.12131 -19.11637  -5.36085
 Alpha  occ. eigenvalues --   -5.36028  -5.35564  -5.34411  -3.72057  -3.72047
 Alpha  occ. eigenvalues --   -3.72024  -3.71993  -3.71987  -3.71920  -3.71627
 Alpha  occ. eigenvalues --   -3.71481  -3.71406  -3.70406  -3.70359  -3.70287
 Alpha  occ. eigenvalues --   -2.08268  -2.06941  -2.06811  -2.05085  -1.29325
 Alpha  occ. eigenvalues --   -1.28933  -1.28525  -1.27980  -1.27752  -1.27688
 Alpha  occ. eigenvalues --   -1.27180  -1.27153  -1.26742  -1.25729  -1.25477
 Alpha  occ. eigenvalues --   -1.25138  -1.05294  -1.04337  -1.03085  -1.01945
 Alpha  occ. eigenvalues --   -1.01440  -1.01177  -1.00981  -0.99760  -0.99486
 Alpha  occ. eigenvalues --   -0.98775  -0.98551  -0.98347  -0.97940  -0.97434
 Alpha  occ. eigenvalues --   -0.96691  -0.96347  -0.95481  -0.95060  -0.94967
 Alpha  occ. eigenvalues --   -0.93893  -0.93671  -0.92088  -0.91199  -0.89531
 Alpha  occ. eigenvalues --   -0.88443  -0.61678  -0.59600  -0.58809  -0.55897
 Alpha  occ. eigenvalues --   -0.54417  -0.53586  -0.52327  -0.52130  -0.51471
 Alpha  occ. eigenvalues --   -0.51374  -0.51055  -0.51021  -0.50788  -0.50193
 Alpha  occ. eigenvalues --   -0.50126  -0.49103  -0.48875  -0.47755  -0.46762
 Alpha  occ. eigenvalues --   -0.45636  -0.45561  -0.44786  -0.42797  -0.42050
 Alpha  occ. eigenvalues --   -0.41474  -0.41393  -0.40583  -0.40404  -0.40232
 Alpha  occ. eigenvalues --   -0.39693  -0.39552  -0.39201  -0.38964  -0.38430
 Alpha  occ. eigenvalues --   -0.37864  -0.37522  -0.37373  -0.37208  -0.36850
 Alpha  occ. eigenvalues --   -0.36685  -0.36134  -0.35967  -0.35758  -0.35622
 Alpha  occ. eigenvalues --   -0.35419  -0.35224  -0.35118  -0.34959  -0.34909
 Alpha  occ. eigenvalues --   -0.34655  -0.34294  -0.34247  -0.34110  -0.33986
 Alpha  occ. eigenvalues --   -0.33780  -0.33466  -0.33415  -0.33185  -0.33042
 Alpha  occ. eigenvalues --   -0.32863  -0.32581  -0.32525  -0.32236  -0.31971
 Alpha  occ. eigenvalues --   -0.31792  -0.31653  -0.31475  -0.31143  -0.31003
 Alpha  occ. eigenvalues --   -0.30807  -0.30751  -0.30200  -0.29527  -0.29139
 Alpha  occ. eigenvalues --   -0.28617
 Alpha virt. eigenvalues --   -0.05223  -0.04768  -0.04429  -0.03413  -0.02867
 Alpha virt. eigenvalues --   -0.02690  -0.01898  -0.01592  -0.01328  -0.01099
 Alpha virt. eigenvalues --   -0.00659  -0.00594  -0.00356   0.00039   0.00522
 Alpha virt. eigenvalues --    0.00665   0.00922   0.01399   0.01521   0.01808
 Alpha virt. eigenvalues --    0.02333   0.02479   0.02784   0.02956   0.03214
 Alpha virt. eigenvalues --    0.03786   0.04085   0.04203   0.05004   0.05429
 Alpha virt. eigenvalues --    0.05768   0.05836   0.06228   0.06564   0.07121
 Alpha virt. eigenvalues --    0.08118   0.08293   0.08683   0.09569   0.10250
 Alpha virt. eigenvalues --    0.10505   0.11193   0.11858   0.12464   0.12838
 Alpha virt. eigenvalues --    0.13450   0.13902   0.14589   0.15043   0.15259
 Alpha virt. eigenvalues --    0.15844   0.16269   0.16574   0.16710   0.16942
 Alpha virt. eigenvalues --    0.17558   0.18010   0.18150   0.18407   0.18718
 Alpha virt. eigenvalues --    0.19160   0.19433   0.19692   0.20262   0.20814
 Alpha virt. eigenvalues --    0.20945   0.21261   0.21512   0.22202   0.22274
 Alpha virt. eigenvalues --    0.22543   0.22770   0.22898   0.23330   0.24134
 Alpha virt. eigenvalues --    0.24229   0.24451   0.24756   0.25062   0.25656
 Alpha virt. eigenvalues --    0.25953   0.26652   0.26804   0.27467   0.27603
 Alpha virt. eigenvalues --    0.28297   0.28681   0.29347   0.30002   0.30089
 Alpha virt. eigenvalues --    0.30526   0.31144   0.31289   0.32024   0.32633
 Alpha virt. eigenvalues --    0.33334   0.33730   0.34115   0.34597   0.35188
 Alpha virt. eigenvalues --    0.36041   0.36644   0.36900   0.37547   0.37929
 Alpha virt. eigenvalues --    0.38404   0.39521   0.40861   0.41230   0.41814
 Alpha virt. eigenvalues --    0.42241   0.44560   0.45069   0.46522   0.46895
 Alpha virt. eigenvalues --    0.49273   0.49949   0.52046   0.55471   0.56398
 Alpha virt. eigenvalues --    0.58090   0.59583   0.60462   0.64636   0.66548
 Alpha virt. eigenvalues --    0.67353   0.76571   0.76836   0.78719   0.79656
 Alpha virt. eigenvalues --    0.80205   0.80985   0.81172   0.82064   0.83595
 Alpha virt. eigenvalues --    0.83710   0.84013   0.84824   0.85904   0.86735
 Alpha virt. eigenvalues --    0.86876   0.87904   0.88934   0.89602   0.90366
 Alpha virt. eigenvalues --    0.90709   0.91747   0.92160   0.92400   0.93200
 Alpha virt. eigenvalues --    0.93294   0.93965   0.94425   0.94900   0.95575
 Alpha virt. eigenvalues --    0.96317   0.96529   0.96766   0.97415   0.97515
 Alpha virt. eigenvalues --    0.97660   0.98143   0.98370   0.98632   0.99240
 Alpha virt. eigenvalues --    0.99376   1.00057   1.00642   1.00926   1.01222
 Alpha virt. eigenvalues --    1.02380   1.02909   1.03247   1.03372   1.03903
 Alpha virt. eigenvalues --    1.04706   1.05555   1.05865   1.06427   1.06456
 Alpha virt. eigenvalues --    1.07341   1.07530   1.08148   1.08723   1.08975
 Alpha virt. eigenvalues --    1.09438   1.09667   1.10353   1.10596   1.11034
 Alpha virt. eigenvalues --    1.11987   1.12678   1.13355   1.13830   1.14333
 Alpha virt. eigenvalues --    1.14790   1.15760   1.16239   1.16650   1.17192
 Alpha virt. eigenvalues --    1.17573   1.18167   1.18830   1.19102   1.19257
 Alpha virt. eigenvalues --    1.19584   1.20057   1.20862   1.21118   1.21681
 Alpha virt. eigenvalues --    1.21930   1.22577   1.23025   1.24025   1.24404
 Alpha virt. eigenvalues --    1.25681   1.26539   1.26852   1.27602   1.27903
 Alpha virt. eigenvalues --    1.29061   1.29629   1.30848   1.31232   1.32223
 Alpha virt. eigenvalues --    1.33791   1.34282   1.35325   1.36830   1.37856
 Alpha virt. eigenvalues --    1.42457   1.43357   1.44709   1.45442   1.47139
 Alpha virt. eigenvalues --    1.47806   1.49136   1.50266   1.50869   1.51103
 Alpha virt. eigenvalues --    1.51855   1.52459   1.53682   1.53959   1.54211
 Alpha virt. eigenvalues --    1.55155   1.55491   1.55919   1.56078   1.56638
 Alpha virt. eigenvalues --    1.56911   1.57486   1.57755   1.58305   1.58472
 Alpha virt. eigenvalues --    1.58751   1.58977   1.59397   1.60158   1.60359
 Alpha virt. eigenvalues --    1.61069   1.62131   1.62215   1.62482   1.62804
 Alpha virt. eigenvalues --    1.63308   1.63786   1.63940   1.64487   1.64671
 Alpha virt. eigenvalues --    1.65626   1.65791   1.66144   1.66798   1.66974
 Alpha virt. eigenvalues --    1.67507   1.68063   1.68724   1.70466   1.70763
 Alpha virt. eigenvalues --    1.71261   1.71674   1.71947   1.72547   1.72738
 Alpha virt. eigenvalues --    1.73394   1.73449   1.74137   1.74876   1.75319
 Alpha virt. eigenvalues --    1.75600   1.76396   1.76994   1.77538   1.77774
 Alpha virt. eigenvalues --    1.78193   1.78361   1.78611   1.78904   1.79366
 Alpha virt. eigenvalues --    1.79600   1.80494   1.80811   1.81156   1.81519
 Alpha virt. eigenvalues --    1.81630   1.82095   1.82317   1.82857   1.83054
 Alpha virt. eigenvalues --    1.83514   1.83764   1.84376   1.85207   1.85452
 Alpha virt. eigenvalues --    1.85714   1.86164   1.86383   1.86649   1.86913
 Alpha virt. eigenvalues --    1.87033   1.87506   1.87904   1.88561   1.89201
 Alpha virt. eigenvalues --    1.90136   1.90878   1.91000   1.91725   1.92678
 Alpha virt. eigenvalues --    1.92878   1.93247   1.94535   1.95139   1.97160
 Alpha virt. eigenvalues --    1.97498   1.98295   1.99433   2.01198   2.01546
 Alpha virt. eigenvalues --    2.04358   2.05599   2.08981   2.09240   2.11723
 Alpha virt. eigenvalues --    2.15027   2.18997   2.31638   2.33746   2.33996
 Alpha virt. eigenvalues --    2.34462   2.35021   2.35147   2.36286   2.36550
 Alpha virt. eigenvalues --    2.36990   2.37969   2.38010   2.39628   2.39714
 Alpha virt. eigenvalues --    2.39900   2.40670   2.41070   2.42456   2.44571
 Alpha virt. eigenvalues --    2.45052   2.46504   2.47960   2.49642   2.52239
 Alpha virt. eigenvalues --    2.55831   2.56283   2.58376   2.59158   2.59728
 Alpha virt. eigenvalues --    2.60126   2.60772   2.61236   2.61629   2.61978
 Alpha virt. eigenvalues --    2.62064   2.62311   2.62508   2.62783   2.63004
 Alpha virt. eigenvalues --    2.63065   2.63135   2.63529   2.63774   2.64156
 Alpha virt. eigenvalues --    2.64553   2.64654   2.65537   2.65622   2.65726
 Alpha virt. eigenvalues --    2.65959   2.66475   2.67537   2.68559   2.69272
 Alpha virt. eigenvalues --    2.69692   2.70619   2.70929   2.73054   2.74041
 Alpha virt. eigenvalues --    2.74545   2.74732   2.76623   2.76765   2.77487
 Alpha virt. eigenvalues --    2.77577   2.78046   2.81916   2.82652   2.84793
 Alpha virt. eigenvalues --    2.86757   2.93406   3.40456   3.40713   3.40929
 Alpha virt. eigenvalues --    3.41418   3.41985   3.43366   3.43871   3.45078
 Alpha virt. eigenvalues --    3.46064   3.46562   3.47237   3.47742   3.49159
 Alpha virt. eigenvalues --    3.49836   3.52106   3.54299   3.54935   3.55393
 Alpha virt. eigenvalues --    4.72911   6.23831   6.64569   7.77898
          Condensed to atoms (all electrons):
 Mulliken charges:
               1
     1  Si   1.295372
     2  O   -0.649246
     3  O   -0.649863
     4  O   -0.648936
     5  O   -0.755188
     6  Zr   1.611909
     7  Si   1.123931
     8  Si   1.162784
     9  Si   1.135888
    10  O   -0.820582
    11  Zr   1.494440
    12  O   -0.863951
    13  Zr   1.591702
    14  O   -0.827892
    15  Zr   1.550493
    16  O   -0.626904
    17  O   -0.574107
    18  O   -0.666390
    19  O   -0.626432
    20  O   -0.610546
    21  O   -0.644236
    22  O   -0.578224
    23  O   -0.653110
    24  O   -0.618531
    25  H    0.355008
    26  H    0.334204
    27  H    0.367296
    28  H    0.370350
    29  H    0.365507
    30  H    0.337894
    31  H    0.336664
    32  H    0.381335
    33  H    0.344277
    34  O   -0.695207
    35  H    0.332501
    36  O   -0.706899
    37  H    0.365687
    38  O   -0.749254
    39  H    0.331334
    40  O   -0.763596
    41  H    0.371864
    42  O   -0.694122
    43  H    0.334171
    44  O   -0.699144
    45  H    0.335366
    46  O   -0.762540
    47  H    0.380824
    48  O   -0.742454
    49  H    0.340348
    50  O   -0.691624
    51  H    0.367827
 Sum of Mulliken charges =  -0.00000
 Mulliken charges with hydrogens summed into heavy atoms:
               1
     1  Si   1.295372
     2  O   -0.649246
     3  O   -0.649863
     4  O   -0.648936
     5  O   -0.755188
     6  Zr   1.611909
     7  Si   1.123931
     8  Si   1.162784
     9  Si   1.135888
    10  O   -0.820582
    11  Zr   1.494440
    12  O   -0.863951
    13  Zr   1.591702
    14  O   -0.827892
    15  Zr   1.550493
    16  O   -0.289010
    17  O   -0.237443
    18  O   -0.300883
    19  O   -0.282155
    20  O   -0.240196
    21  O   -0.262901
    22  O   -0.244021
    23  O   -0.298102
    24  O   -0.251235
    34  O   -0.362706
    36  O   -0.341211
    38  O   -0.417921
    40  O   -0.391732
    42  O   -0.359951
    44  O   -0.363778
    46  O   -0.381716
    48  O   -0.402107
    50  O   -0.323797
 Electronic spatial extent (au):  <R**2>=          25052.8296
 Charge=              0.0000 electrons
 Dipole moment (field-independent basis, Debye):
    X=              2.1262    Y=              4.4719    Z=              0.8781  Tot=              5.0289
 Quadrupole moment (field-independent basis, Debye-Ang):
   XX=           -294.7980   YY=           -258.1951   ZZ=           -261.4109
   XY=              3.2622   XZ=              7.4847   YZ=             -8.2241
 Traceless Quadrupole moment (field-independent basis, Debye-Ang):
   XX=            -23.3300   YY=             13.2729   ZZ=             10.0571
   XY=              3.2622   XZ=              7.4847   YZ=             -8.2241
 Octapole moment (field-independent basis, Debye-Ang**2):
  XXX=            325.0477  YYY=            102.5509  ZZZ=            -43.3542  XYY=            157.5837
  XXY=             64.3912  XXZ=            -28.4931  XZZ=            123.7870  YZZ=             10.1921
  YYZ=            -18.1535  XYZ=             58.8372
 Hexadecapole moment (field-independent basis, Debye-Ang**3):
 XXXX=         -22686.6977 YYYY=          -5701.9108 ZZZZ=          -4890.2425 XXXY=            130.9057
 XXXZ=            -10.4408 YYYX=             38.3637 YYYZ=             23.8009 ZZZX=             55.1740
 ZZZY=            -70.0826 XXYY=          -4661.5856 XXZZ=          -3808.9363 YYZZ=          -1734.6020
 XXYZ=           -512.2530 YYXZ=           -166.4707 ZZXY=            180.5939
 N-N= 5.668220567194D+03 E-N=-1.893708160208D+04  KE= 3.091319066814D+03
 1\1\GINC-GRA588\FOpt\RB3LYP\Gen\H18O25Si4Zr4\SARASHS\22-Jun-2020\0\\#n
  B3LYP/GEN PSEUDO=READ Opt=calcfc\\Title\\0,1\Si,-2.7566900869,0.50781
 22077,-0.8034879597\O,-2.6375123747,-0.0546777638,0.7319201697\O,-3.70
 01818698,1.8658788661,-0.793628519\O,-3.4698094883,-0.6517897324,-1.71
 57083696\O,-1.2592167085,0.8692391302,-1.3135714008\Zr,0.6227192678,0.
 5545394672,-0.6780051772\Si,-2.9444397505,-0.3864329085,2.2962902024\S
 i,-5.2781717725,2.1304136703,-0.3929915929\Si,-4.6568954258,-1.7862087
 686,-1.4569077238\O,1.4125946293,-1.0590368456,-1.3842085686\Zr,3.0611
 481529,-2.2528350047,-1.3750833602\O,0.7621618605,0.2370968685,1.31605
 38076\Zr,2.0081392457,-0.8626209502,2.3773370042\O,1.8524779305,2.0512
 589193,-1.0349366498\Zr,3.6881984527,2.659354148,-0.580654449\O,-6.291
 03547,1.7855092138,-1.656704813\O,-5.4236701943,3.6995560779,0.0532400
 873\O,-5.7550643944,1.108547947,0.8180761453\O,-3.5060801788,-1.956183
 0217,2.2683852988\O,-4.0267676994,0.6233733163,2.9822261439\O,-1.50371
 87925,-0.301952534,3.0998466797\O,-4.9844817092,-2.5130965468,-2.88894
 44506\O,-6.0413490572,-1.0014194319,-0.9651175745\O,-4.2282679378,-2.8
 746372849,-0.328952096\H,-6.3872741611,-0.3483804086,-1.5957905365\H,-
 4.2252880349,-2.8648908587,-3.3662864574\H,-3.9351016879,-2.5888823487
 ,0.5560731954\H,-4.7676496981,0.868607431,2.3913749626\H,-6.0365473929
 ,0.2410580311,0.4578366287\H,-6.2276619285,2.3587564071,-2.4287935235\
 H,-4.60285253,4.1384242042,0.3016881629\H,-0.8260467307,0.1098186812,2
 .5302522433\H,-4.0566977483,-2.2346430732,3.0086583452\O,3.3286032322,
 -2.7197667451,-3.2678321924\H,3.9646418961,-2.4399146777,-3.9333920655
 \O,4.5992121704,-1.1319639757,-0.9740855902\H,4.7791677662,-0.36865893
 17,-0.3889360718\O,2.9536459234,-4.1222934713,-0.5878450302\H,3.053238
 8194,-4.9341785114,-1.096940938\O,4.4448874129,1.2025139023,0.54215615
 97\H,4.3314087486,0.996514085,1.493989523\O,4.7669946983,2.8314933376,
 -2.2023207731\H,5.1569113662,3.4395030837,-2.8348333049\O,3.5602469164
 ,4.3213327932,0.4280004274\H,3.0762282847,5.0551455939,0.8114312353\O,
 2.6774004454,-2.2605136254,1.1124921272\H,2.7160135297,-3.2366921634,1
 .0610654149\O,3.533381568,0.2822220517,2.9921005843\H,3.8298463961,0.5
 67567311,3.863230359\O,0.9745440154,-1.5590959937,3.865016951\H,0.0185
 820937,-1.4263171677,3.9981673295\\Version=ES64L-G16RevB.01\State=1-A\
 HF=-3237.5675403\RMSD=4.250e-09\RMSF=1.105e-06\Dipole=0.845312,1.75644
 98,0.3389003\Quadrupole=-17.304727,9.8077019,7.497025,2.5607247,5.5663
 068,-6.151541\PG=C01 [X(H18O25Si4Zr4)]\\@


 DIATOMIC MOLECULES ARE PECULIAR BECAUSE THEY ONLY HAVE TWO ENDS,
 AND THESE ENDS ARE VERY CLOSE TOGETHER.
 KLAUS RUEDENBERG, REV.MOD.PHYS. PG 176, 32, (1960)
 Job cpu time:       0 days 22 hours 12 minutes 20.2 seconds.
 Elapsed time:       0 days  1 hours 24 minutes 37.5 seconds.
 File lengths (MBytes):  RWF=   2277 Int=      0 D2E=      0 Chk=     31 Scr=      1
 Normal termination of Gaussian 16 at Mon Jun 22 03:35:01 2020.
