 Entering Gaussian System, Link 0=g16
 Initial command:
 /opt/software/gaussian/g16.b01/l1.exe "/localscratch/sarashs.33453291.0/Gau-22394.inp" -scrdir="/localscratch/sarashs.33453291.0/"
 Entering Link 1 = /opt/software/gaussian/g16.b01/l1.exe PID=     22395.
  
 Copyright (c) 1988-2017, Gaussian, Inc.  All Rights Reserved.
  
 This is part of the Gaussian(R) 16 program.  It is based on
 the Gaussian(R) 09 system (copyright 2009, Gaussian, Inc.),
 the Gaussian(R) 03 system (copyright 2003, Gaussian, Inc.),
 the Gaussian(R) 98 system (copyright 1998, Gaussian, Inc.),
 the Gaussian(R) 94 system (copyright 1995, Gaussian, Inc.),
 the Gaussian 92(TM) system (copyright 1992, Gaussian, Inc.),
 the Gaussian 90(TM) system (copyright 1990, Gaussian, Inc.),
 the Gaussian 88(TM) system (copyright 1988, Gaussian, Inc.),
 the Gaussian 86(TM) system (copyright 1986, Carnegie Mellon
 University), and the Gaussian 82(TM) system (copyright 1983,
 Carnegie Mellon University). Gaussian is a federally registered
 trademark of Gaussian, Inc.
  
 This software contains proprietary and confidential information,
 including trade secrets, belonging to Gaussian, Inc.
  
 This software is provided under written license and may be
 used, copied, transmitted, or stored only in accord with that
 written license.
  
 The following legend is applicable only to US Government
 contracts under FAR:
  
                    RESTRICTED RIGHTS LEGEND
  
 Use, reproduction and disclosure by the US Government is
 subject to restrictions as set forth in subparagraphs (a)
 and (c) of the Commercial Computer Software - Restricted
 Rights clause in FAR 52.227-19.
  
 Gaussian, Inc.
 340 Quinnipiac St., Bldg. 40, Wallingford CT 06492
  
  
 ---------------------------------------------------------------
 Warning -- This program may not be used in any manner that
 competes with the business of Gaussian, Inc. or will provide
 assistance to any competitor of Gaussian, Inc.  The licensee
 of this program is prohibited from giving any competitor of
 Gaussian, Inc. access to this program.  By using this program,
 the user acknowledges that Gaussian, Inc. is engaged in the
 business of creating and licensing software in the field of
 computational chemistry and represents and warrants to the
 licensee that it is not a competitor of Gaussian, Inc. and that
 it will not use this program in any manner prohibited above.
 ---------------------------------------------------------------
  

 Cite this work as:
 Gaussian 16, Revision B.01,
 M. J. Frisch, G. W. Trucks, H. B. Schlegel, G. E. Scuseria, 
 M. A. Robb, J. R. Cheeseman, G. Scalmani, V. Barone, 
 G. A. Petersson, H. Nakatsuji, X. Li, M. Caricato, A. V. Marenich, 
 J. Bloino, B. G. Janesko, R. Gomperts, B. Mennucci, H. P. Hratchian, 
 J. V. Ortiz, A. F. Izmaylov, J. L. Sonnenberg, D. Williams-Young, 
 F. Ding, F. Lipparini, F. Egidi, J. Goings, B. Peng, A. Petrone, 
 T. Henderson, D. Ranasinghe, V. G. Zakrzewski, J. Gao, N. Rega, 
 G. Zheng, W. Liang, M. Hada, M. Ehara, K. Toyota, R. Fukuda, 
 J. Hasegawa, M. Ishida, T. Nakajima, Y. Honda, O. Kitao, H. Nakai, 
 T. Vreven, K. Throssell, J. A. Montgomery, Jr., J. E. Peralta, 
 F. Ogliaro, M. J. Bearpark, J. J. Heyd, E. N. Brothers, K. N. Kudin, 
 V. N. Staroverov, T. A. Keith, R. Kobayashi, J. Normand, 
 K. Raghavachari, A. P. Rendell, J. C. Burant, S. S. Iyengar, 
 J. Tomasi, M. Cossi, J. M. Millam, M. Klene, C. Adamo, R. Cammi, 
 J. W. Ochterski, R. L. Martin, K. Morokuma, O. Farkas, 
 J. B. Foresman, and D. J. Fox, Gaussian, Inc., Wallingford CT, 2016.
 
 ******************************************
 Gaussian 16:  ES64L-G16RevB.01 20-Dec-2017
                24-Jun-2020 
 ******************************************
 %NProcShared=16
 Will use up to   16 processors via shared memory.
 ------------------------------------------
 #n B3LYP/GEN PSEUDO=READ Opt(modredundant)
 ------------------------------------------
 1/18=120,19=15,26=3,38=1/1,3;
 2/9=110,12=2,17=6,18=5,40=1/2;
 3/5=7,11=2,16=1,17=8,25=1,30=1,71=1,74=-5/1,2,3;
 4//1;
 5/5=2,38=5/2;
 6/7=2,8=2,9=2,10=2,28=1/1;
 7//1,2,3,16;
 1/18=20,19=15,26=3/3(2);
 2/9=110/2;
 99//99;
 2/9=110/2;
 3/5=7,6=1,11=2,16=1,17=8,25=1,30=1,71=1,74=-5,82=7/1,2,3;
 4/5=5,16=3,69=1/1;
 5/5=2,38=5/2;
 7//1,2,3,16;
 1/18=20,19=15,26=3/3(-5);
 2/9=110/2;
 6/7=2,8=2,9=2,10=2,19=2,28=1/1;
 99/9=1/99;
 -----
 Title
 -----
 Symbolic Z-matrix:
 Charge =  0 Multiplicity = 1
 Si                   -2.76356   0.50373  -0.80236 
 O                    -2.64408  -0.06281   0.73154 
 O                    -3.71347   1.8573   -0.78988 
 O                    -3.46982  -0.65647  -1.71915 
 O                    -1.26704   0.87374  -1.30905 
 Zr                    0.47707   0.53441  -0.36692 
 Si                   -2.95182  -0.40071   2.29443 
 Si                   -5.29329   2.11319  -0.39088 
 Si                   -4.65193  -1.79724  -1.46558 
 O                     1.33758  -1.10585  -0.91035 
 Zr                    2.93589  -2.33041  -0.6123 
 O                     0.27885   0.24893   1.62699 
 Zr                    1.30869  -0.85572   2.89479 
 O                     1.78087   2.00111  -0.53655 
 Zr                    3.52923   2.582     0.20631 
 O                    -6.30259   1.76732  -1.65717 
 O                    -5.44687   3.68028   0.05984 
 O                    -5.76721   1.08545   0.81639 
 O                    -3.50601  -1.97299   2.26095 
 O                    -4.03994   0.60192   2.98173 
 O                    -1.51274  -0.31185   3.10045 
 O                    -4.9739   -2.52135  -2.90029 
 O                    -6.04082  -1.02047  -0.97357 
 O                    -4.21989  -2.88703  -0.34024 
 H                    -6.38886  -0.36717  -1.60281 
 H                    -4.21233  -2.86813  -3.37752 
 H                    -3.92943  -2.60256   0.54609 
 H                    -4.78107   0.84544   2.39047 
 H                    -6.04405   0.21773   0.45311 
 H                    -6.24075   2.34318  -2.42744 
 H                    -4.62851   4.12226   0.31086 
 H                    -0.83615   0.10482   2.53314 
 H                    -4.05643  -2.25627   2.99954 
 O                     3.50171  -2.83501  -2.42815 
 H                     4.2447   -2.57884  -2.98328 
 O                     4.41059  -1.23217   0.02169 
 H                     4.50801  -0.46241   0.61784 
 O                     2.6597   -4.18358   0.17231 
 H                     2.82435  -5.0059   -0.30196 
 O                     4.05875   1.1307    1.45891 
 H                     3.78542   0.9434    2.38168 
 O                     4.86416   2.70554  -1.21703 
 H                     5.36609   3.295    -1.78483 
 O                     3.27258   4.26332   1.15671 
 H                     2.7479    5.01271   1.44463 
 O                     2.14707  -2.28775   1.77753 
 H                     2.17255  -3.26522   1.74679 
 O                     2.73601   0.27042   3.73713 
 H                     2.89084   0.56512   4.64121 
 O                     0.02911  -1.50659   4.20078 
 H                    -0.93263  -1.3534    4.17227 
 
 The following ModRedundant input section has been read:
 A       1       5       6 F                                                   
 

 GradGradGradGradGradGradGradGradGradGradGradGradGradGradGradGradGradGrad
 Berny optimization.
 Initialization pass.
                           ----------------------------
                           !    Initial Parameters    !
                           ! (Angstroms and Degrees)  !
 --------------------------                            --------------------------
 ! Name  Definition              Value          Derivative Info.                !
 --------------------------------------------------------------------------------
 ! R1    R(1,2)                  1.6395         estimate D2E/DX2                !
 ! R2    R(1,3)                  1.6537         estimate D2E/DX2                !
 ! R3    R(1,4)                  1.6387         estimate D2E/DX2                !
 ! R4    R(1,5)                  1.6227         estimate D2E/DX2                !
 ! R5    R(2,7)                  1.6283         estimate D2E/DX2                !
 ! R6    R(3,8)                  1.6494         estimate D2E/DX2                !
 ! R7    R(4,9)                  1.6622         estimate D2E/DX2                !
 ! R8    R(5,6)                  2.0111         estimate D2E/DX2                !
 ! R9    R(6,10)                 1.9303         estimate D2E/DX2                !
 ! R10   R(6,12)                 2.024          estimate D2E/DX2                !
 ! R11   R(6,14)                 1.9697         estimate D2E/DX2                !
 ! R12   R(7,19)                 1.6674         estimate D2E/DX2                !
 ! R13   R(7,20)                 1.6315         estimate D2E/DX2                !
 ! R14   R(7,21)                 1.6518         estimate D2E/DX2                !
 ! R15   R(8,16)                 1.6558         estimate D2E/DX2                !
 ! R16   R(8,17)                 1.6378         estimate D2E/DX2                !
 ! R17   R(8,18)                 1.6548         estimate D2E/DX2                !
 ! R18   R(9,22)                 1.639          estimate D2E/DX2                !
 ! R19   R(9,23)                 1.6657         estimate D2E/DX2                !
 ! R20   R(9,24)                 1.625          estimate D2E/DX2                !
 ! R21   R(10,11)                2.0354         estimate D2E/DX2                !
 ! R22   R(11,34)                1.9678         estimate D2E/DX2                !
 ! R23   R(11,36)                1.9449         estimate D2E/DX2                !
 ! R24   R(11,38)                2.0313         estimate D2E/DX2                !
 ! R25   R(12,13)                1.9718         estimate D2E/DX2                !
 ! R26   R(13,46)                2.0005         estimate D2E/DX2                !
 ! R27   R(13,48)                2.0037         estimate D2E/DX2                !
 ! R28   R(13,50)                1.9408         estimate D2E/DX2                !
 ! R29   R(14,15)                1.9865         estimate D2E/DX2                !
 ! R30   R(15,40)                1.9889         estimate D2E/DX2                !
 ! R31   R(15,42)                1.9553         estimate D2E/DX2                !
 ! R32   R(15,44)                1.9483         estimate D2E/DX2                !
 ! R33   R(16,30)                0.9637         estimate D2E/DX2                !
 ! R34   R(17,31)                0.9634         estimate D2E/DX2                !
 ! R35   R(18,29)                0.9806         estimate D2E/DX2                !
 ! R36   R(19,33)                0.9637         estimate D2E/DX2                !
 ! R37   R(20,28)                0.9789         estimate D2E/DX2                !
 ! R38   R(21,32)                0.9763         estimate D2E/DX2                !
 ! R39   R(22,26)                0.9633         estimate D2E/DX2                !
 ! R40   R(23,25)                0.9715         estimate D2E/DX2                !
 ! R41   R(24,27)                0.9751         estimate D2E/DX2                !
 ! R42   R(34,35)                0.9622         estimate D2E/DX2                !
 ! R43   R(36,37)                0.9785         estimate D2E/DX2                !
 ! R44   R(38,39)                0.9635         estimate D2E/DX2                !
 ! R45   R(40,41)                0.9805         estimate D2E/DX2                !
 ! R46   R(42,43)                0.9601         estimate D2E/DX2                !
 ! R47   R(44,45)                0.959          estimate D2E/DX2                !
 ! R48   R(46,47)                0.9783         estimate D2E/DX2                !
 ! R49   R(48,49)                0.9634         estimate D2E/DX2                !
 ! R50   R(50,51)                0.9743         estimate D2E/DX2                !
 ! A1    A(2,1,3)              108.5202         estimate D2E/DX2                !
 ! A2    A(2,1,4)              108.0696         estimate D2E/DX2                !
 ! A3    A(2,1,5)              107.6808         estimate D2E/DX2                !
 ! A4    A(3,1,4)              109.6434         estimate D2E/DX2                !
 ! A5    A(3,1,5)              110.2104         estimate D2E/DX2                !
 ! A6    A(4,1,5)              112.595          estimate D2E/DX2                !
 ! A7    A(1,2,7)              162.9195         estimate D2E/DX2                !
 ! A8    A(1,3,8)              132.766          estimate D2E/DX2                !
 ! A9    A(1,4,9)              134.9946         estimate D2E/DX2                !
 ! A10   A(1,5,6)              127.9545         Frozen                          !
 ! A11   A(5,6,10)             113.4583         estimate D2E/DX2                !
 ! A12   A(5,6,12)             113.6009         estimate D2E/DX2                !
 ! A13   A(5,6,14)             114.0825         estimate D2E/DX2                !
 ! A14   A(10,6,12)            101.6038         estimate D2E/DX2                !
 ! A15   A(10,6,14)            108.2645         estimate D2E/DX2                !
 ! A16   A(12,6,14)            104.7553         estimate D2E/DX2                !
 ! A17   A(2,7,19)             103.84           estimate D2E/DX2                !
 ! A18   A(2,7,20)             113.7575         estimate D2E/DX2                !
 ! A19   A(2,7,21)             107.0096         estimate D2E/DX2                !
 ! A20   A(19,7,20)            111.4863         estimate D2E/DX2                !
 ! A21   A(19,7,21)            110.4922         estimate D2E/DX2                !
 ! A22   A(20,7,21)            110.0253         estimate D2E/DX2                !
 ! A23   A(3,8,16)             111.4953         estimate D2E/DX2                !
 ! A24   A(3,8,17)             107.7477         estimate D2E/DX2                !
 ! A25   A(3,8,18)             110.7593         estimate D2E/DX2                !
 ! A26   A(16,8,17)            110.6802         estimate D2E/DX2                !
 ! A27   A(16,8,18)            104.6923         estimate D2E/DX2                !
 ! A28   A(17,8,18)            111.5071         estimate D2E/DX2                !
 ! A29   A(4,9,22)             108.021          estimate D2E/DX2                !
 ! A30   A(4,9,23)             108.5421         estimate D2E/DX2                !
 ! A31   A(4,9,24)             112.1363         estimate D2E/DX2                !
 ! A32   A(22,9,23)            107.505          estimate D2E/DX2                !
 ! A33   A(22,9,24)            111.2311         estimate D2E/DX2                !
 ! A34   A(23,9,24)            109.2613         estimate D2E/DX2                !
 ! A35   A(6,10,11)            145.0882         estimate D2E/DX2                !
 ! A36   A(10,11,34)           104.1785         estimate D2E/DX2                !
 ! A37   A(10,11,36)           107.6623         estimate D2E/DX2                !
 ! A38   A(10,11,38)           119.9114         estimate D2E/DX2                !
 ! A39   A(34,11,36)           103.1546         estimate D2E/DX2                !
 ! A40   A(34,11,38)            99.2993         estimate D2E/DX2                !
 ! A41   A(36,11,38)           119.4941         estimate D2E/DX2                !
 ! A42   A(6,12,13)            131.397          estimate D2E/DX2                !
 ! A43   A(12,13,46)           105.1187         estimate D2E/DX2                !
 ! A44   A(12,13,48)           109.1151         estimate D2E/DX2                !
 ! A45   A(12,13,50)           106.0331         estimate D2E/DX2                !
 ! A46   A(46,13,48)           109.79           estimate D2E/DX2                !
 ! A47   A(46,13,50)           114.335          estimate D2E/DX2                !
 ! A48   A(48,13,50)           112.0396         estimate D2E/DX2                !
 ! A49   A(6,14,15)            140.1849         estimate D2E/DX2                !
 ! A50   A(14,15,40)           104.8604         estimate D2E/DX2                !
 ! A51   A(14,15,42)           110.3128         estimate D2E/DX2                !
 ! A52   A(14,15,44)           108.5922         estimate D2E/DX2                !
 ! A53   A(40,15,42)           108.8319         estimate D2E/DX2                !
 ! A54   A(40,15,44)           110.9502         estimate D2E/DX2                !
 ! A55   A(42,15,44)           112.9858         estimate D2E/DX2                !
 ! A56   A(8,16,30)            116.5711         estimate D2E/DX2                !
 ! A57   A(8,17,31)            115.5324         estimate D2E/DX2                !
 ! A58   A(8,18,29)            111.1097         estimate D2E/DX2                !
 ! A59   A(7,19,33)            116.8474         estimate D2E/DX2                !
 ! A60   A(7,20,28)            113.7913         estimate D2E/DX2                !
 ! A61   A(7,21,32)            110.0697         estimate D2E/DX2                !
 ! A62   A(9,22,26)            115.9371         estimate D2E/DX2                !
 ! A63   A(9,23,25)            114.8968         estimate D2E/DX2                !
 ! A64   A(9,24,27)            120.8639         estimate D2E/DX2                !
 ! A65   A(11,34,35)           133.3272         estimate D2E/DX2                !
 ! A66   A(11,36,37)           135.9149         estimate D2E/DX2                !
 ! A67   A(11,38,39)           124.4224         estimate D2E/DX2                !
 ! A68   A(15,40,41)           131.1415         estimate D2E/DX2                !
 ! A69   A(15,42,43)           145.7116         estimate D2E/DX2                !
 ! A70   A(15,44,45)           153.2296         estimate D2E/DX2                !
 ! A71   A(13,46,47)           138.049          estimate D2E/DX2                !
 ! A72   A(13,48,49)           132.9127         estimate D2E/DX2                !
 ! A73   A(13,50,51)           125.3386         estimate D2E/DX2                !
 ! D1    D(3,1,2,7)             26.3443         estimate D2E/DX2                !
 ! D2    D(4,1,2,7)            -92.4856         estimate D2E/DX2                !
 ! D3    D(5,1,2,7)            145.6313         estimate D2E/DX2                !
 ! D4    D(2,1,3,8)            -62.7632         estimate D2E/DX2                !
 ! D5    D(4,1,3,8)             55.0697         estimate D2E/DX2                !
 ! D6    D(5,1,3,8)            179.5501         estimate D2E/DX2                !
 ! D7    D(2,1,4,9)             35.4977         estimate D2E/DX2                !
 ! D8    D(3,1,4,9)            -82.6158         estimate D2E/DX2                !
 ! D9    D(5,1,4,9)            154.3011         estimate D2E/DX2                !
 ! D10   D(2,1,5,6)              6.4029         estimate D2E/DX2                !
 ! D11   D(3,1,5,6)            124.6069         estimate D2E/DX2                !
 ! D12   D(4,1,5,6)           -112.6275         estimate D2E/DX2                !
 ! D13   D(1,2,7,19)           100.9483         estimate D2E/DX2                !
 ! D14   D(1,2,7,20)           -20.4241         estimate D2E/DX2                !
 ! D15   D(1,2,7,21)          -142.1534         estimate D2E/DX2                !
 ! D16   D(1,3,8,16)           -83.6614         estimate D2E/DX2                !
 ! D17   D(1,3,8,17)           154.7            estimate D2E/DX2                !
 ! D18   D(1,3,8,18)            32.4929         estimate D2E/DX2                !
 ! D19   D(1,4,9,22)           173.7129         estimate D2E/DX2                !
 ! D20   D(1,4,9,23)            57.4339         estimate D2E/DX2                !
 ! D21   D(1,4,9,24)           -63.3679         estimate D2E/DX2                !
 ! D22   D(1,5,6,10)            94.7922         estimate D2E/DX2                !
 ! D23   D(1,5,6,12)           -20.604          estimate D2E/DX2                !
 ! D24   D(1,5,6,14)          -140.5852         estimate D2E/DX2                !
 ! D25   D(5,6,10,11)         -177.8675         estimate D2E/DX2                !
 ! D26   D(12,6,10,11)         -55.5474         estimate D2E/DX2                !
 ! D27   D(14,6,10,11)          54.425          estimate D2E/DX2                !
 ! D28   D(5,6,12,13)          148.1496         estimate D2E/DX2                !
 ! D29   D(10,6,12,13)          25.9279         estimate D2E/DX2                !
 ! D30   D(14,6,12,13)         -86.7118         estimate D2E/DX2                !
 ! D31   D(5,6,14,15)          169.9968         estimate D2E/DX2                !
 ! D32   D(10,6,14,15)         -62.6536         estimate D2E/DX2                !
 ! D33   D(12,6,14,15)          45.1624         estimate D2E/DX2                !
 ! D34   D(2,7,19,33)         -156.8425         estimate D2E/DX2                !
 ! D35   D(20,7,19,33)         -33.9627         estimate D2E/DX2                !
 ! D36   D(21,7,19,33)          88.7198         estimate D2E/DX2                !
 ! D37   D(2,7,20,28)           39.0047         estimate D2E/DX2                !
 ! D38   D(19,7,20,28)         -78.0052         estimate D2E/DX2                !
 ! D39   D(21,7,20,28)         159.0451         estimate D2E/DX2                !
 ! D40   D(2,7,21,32)           12.2859         estimate D2E/DX2                !
 ! D41   D(19,7,21,32)         124.7052         estimate D2E/DX2                !
 ! D42   D(20,7,21,32)        -111.7631         estimate D2E/DX2                !
 ! D43   D(3,8,16,30)          -66.936          estimate D2E/DX2                !
 ! D44   D(17,8,16,30)          52.9866         estimate D2E/DX2                !
 ! D45   D(18,8,16,30)         173.2574         estimate D2E/DX2                !
 ! D46   D(3,8,17,31)          -19.3558         estimate D2E/DX2                !
 ! D47   D(16,8,17,31)        -141.4996         estimate D2E/DX2                !
 ! D48   D(18,8,17,31)         102.3883         estimate D2E/DX2                !
 ! D49   D(3,8,18,29)          -84.4645         estimate D2E/DX2                !
 ! D50   D(16,8,18,29)          35.8337         estimate D2E/DX2                !
 ! D51   D(17,8,18,29)         155.5519         estimate D2E/DX2                !
 ! D52   D(4,9,22,26)           52.0376         estimate D2E/DX2                !
 ! D53   D(23,9,22,26)         168.99           estimate D2E/DX2                !
 ! D54   D(24,9,22,26)         -71.4318         estimate D2E/DX2                !
 ! D55   D(4,9,23,25)           59.2735         estimate D2E/DX2                !
 ! D56   D(22,9,23,25)         -57.3378         estimate D2E/DX2                !
 ! D57   D(24,9,23,25)        -178.1643         estimate D2E/DX2                !
 ! D58   D(4,9,24,27)           54.0597         estimate D2E/DX2                !
 ! D59   D(22,9,24,27)         175.1468         estimate D2E/DX2                !
 ! D60   D(23,9,24,27)         -66.3256         estimate D2E/DX2                !
 ! D61   D(6,10,11,34)        -136.8774         estimate D2E/DX2                !
 ! D62   D(6,10,11,36)         -27.8036         estimate D2E/DX2                !
 ! D63   D(6,10,11,38)         113.3905         estimate D2E/DX2                !
 ! D64   D(10,11,34,35)        105.9342         estimate D2E/DX2                !
 ! D65   D(36,11,34,35)         -6.4254         estimate D2E/DX2                !
 ! D66   D(38,11,34,35)       -129.8338         estimate D2E/DX2                !
 ! D67   D(10,11,36,37)         37.7975         estimate D2E/DX2                !
 ! D68   D(34,11,36,37)        147.5772         estimate D2E/DX2                !
 ! D69   D(38,11,36,37)       -103.5874         estimate D2E/DX2                !
 ! D70   D(10,11,38,39)        114.2539         estimate D2E/DX2                !
 ! D71   D(34,11,38,39)          1.8863         estimate D2E/DX2                !
 ! D72   D(36,11,38,39)       -109.0644         estimate D2E/DX2                !
 ! D73   D(6,12,13,46)         -23.7697         estimate D2E/DX2                !
 ! D74   D(6,12,13,48)          93.9285         estimate D2E/DX2                !
 ! D75   D(6,12,13,50)        -145.2201         estimate D2E/DX2                !
 ! D76   D(12,13,46,47)       -123.8173         estimate D2E/DX2                !
 ! D77   D(48,13,46,47)        118.943          estimate D2E/DX2                !
 ! D78   D(50,13,46,47)         -7.9569         estimate D2E/DX2                !
 ! D79   D(12,13,48,49)        115.0456         estimate D2E/DX2                !
 ! D80   D(46,13,48,49)       -130.2414         estimate D2E/DX2                !
 ! D81   D(50,13,48,49)         -2.0618         estimate D2E/DX2                !
 ! D82   D(12,13,50,51)          3.8981         estimate D2E/DX2                !
 ! D83   D(46,13,50,51)       -111.4301         estimate D2E/DX2                !
 ! D84   D(48,13,50,51)        122.8398         estimate D2E/DX2                !
 ! D85   D(6,14,15,40)           2.4012         estimate D2E/DX2                !
 ! D86   D(6,14,15,42)         119.4228         estimate D2E/DX2                !
 ! D87   D(6,14,15,44)        -116.2551         estimate D2E/DX2                !
 ! D88   D(14,15,40,41)        -80.6705         estimate D2E/DX2                !
 ! D89   D(42,15,40,41)        161.2974         estimate D2E/DX2                !
 ! D90   D(44,15,40,41)         36.3817         estimate D2E/DX2                !
 ! D91   D(14,15,42,43)        104.4333         estimate D2E/DX2                !
 ! D92   D(40,15,42,43)       -141.0359         estimate D2E/DX2                !
 ! D93   D(44,15,42,43)        -17.3232         estimate D2E/DX2                !
 ! D94   D(14,15,44,45)         -4.8204         estimate D2E/DX2                !
 ! D95   D(40,15,44,45)       -119.5623         estimate D2E/DX2                !
 ! D96   D(42,15,44,45)        117.8998         estimate D2E/DX2                !
 --------------------------------------------------------------------------------
 Trust Radius=3.00D-01 FncErr=1.00D-07 GrdErr=1.00D-06 EigMax=2.50D+02 EigMin=1.00D-04
 Number of steps in this run=    229 maximum allowed number of steps=    306.
 GradGradGradGradGradGradGradGradGradGradGradGradGradGradGradGradGradGrad

 Stoichiometry    H18O25Si4Zr4
 Framework group  C1[X(H18O25Si4Zr4)]
 Deg. of freedom   147
 Full point group                 C1      NOp   1
 Largest Abelian subgroup         C1      NOp   1
 Largest concise Abelian subgroup C1      NOp   1
                         Standard orientation:                         
 ---------------------------------------------------------------------
 Center     Atomic      Atomic             Coordinates (Angstroms)
 Number     Number       Type             X           Y           Z
 ---------------------------------------------------------------------
      1         14           0       -2.689902    0.498412   -0.948303
      2          8           0       -2.421260   -0.022591    0.582867
      3          8           0       -3.643087    1.848215   -0.884226
      4          8           0       -3.472676   -0.690722   -1.759842
      5          8           0       -1.250851    0.859029   -1.605800
      6         40           0        0.577195    0.553897   -0.824895
      7         14           0       -2.576615   -0.315799    2.177043
      8         14           0       -5.179377    2.109766   -0.343934
      9         14           0       -4.617839   -1.827993   -1.362027
     10          8           0        1.392705   -1.098329   -1.400517
     11         40           0        3.020055   -2.307681   -1.221140
     12          8           0        0.571553    0.326096    1.186210
     13         40           0        1.724566   -0.737167    2.381271
     14          8           0        1.849365    2.019863   -1.160160
     15         40           0        3.656692    2.628741   -0.604393
     16          8           0       -6.302373    1.723260   -1.497752
     17          8           0       -5.299533    3.688780    0.074139
     18          8           0       -5.529524    1.116001    0.932067
     19          8           0       -3.121245   -1.890442    2.241770
     20          8           0       -3.600856    0.702431    2.935853
     21          8           0       -1.067946   -0.198045    2.839290
     22          8           0       -5.070216   -2.594935   -2.738089
     23          8           0       -5.958601   -1.042356   -0.762366
     24          8           0       -4.073557   -2.882797   -0.252146
     25          1           0       -6.369202   -0.409035   -1.374075
     26          1           0       -4.355299   -2.952676   -3.275591
     27          1           0       -3.701893   -2.571454    0.593906
     28          1           0       -4.396474    0.925794    2.411196
     29          1           0       -5.834046    0.237005    0.621934
     30          1           0       -6.317886    2.276581   -2.286644
     31          1           0       -4.463883    4.140960    0.233176
     32          1           0       -0.451159    0.204382    2.198310
     33          1           0       -3.596999   -2.154058    3.037313
     34          8           0        3.413706   -2.863040   -3.067406
     35          1           0        4.098793   -2.620440   -3.697983
     36          8           0        4.541243   -1.185882   -0.762482
     37          1           0        4.689969   -0.398664   -0.200713
     38          8           0        2.831863   -4.138137   -0.360821
     39          1           0        2.955956   -4.973352   -0.824793
     40          8           0        4.312473    1.216668    0.633213
     41          1           0        4.129454    1.055408    1.582842
     42          8           0        4.849227    2.715594   -2.151491
     43          1           0        5.290982    3.290069   -2.781272
     44          8           0        3.480762    4.336160    0.317419
     45          1           0        2.981016    5.091685    0.632391
     46          8           0        2.462066   -2.198112    1.230796
     47          1           0        2.490856   -3.175961    1.225879
     48          8           0        3.218244    0.418435    3.050959
     49          1           0        3.456519    0.740016    3.927310
     50          8           0        0.579383   -1.354345    3.821485
     51          1           0       -0.381678   -1.205642    3.880412
 ---------------------------------------------------------------------
 Rotational constants (GHZ):           0.0888545           0.0408591           0.0381737
 General basis read from cards:  (5D, 7F)
 ======================================================================================================
                                       Pseudopotential Parameters
 ======================================================================================================
  Center     Atomic      Valence      Angular      Power
  Number     Number     Electrons     Momentum     of R      Exponent        Coefficient   SO-Coeffient
 ======================================================================================================
    1         14
                                   No pseudopotential on this center.
    2          8
                                   No pseudopotential on this center.
    3          8
                                   No pseudopotential on this center.
    4          8
                                   No pseudopotential on this center.
    5          8
                                   No pseudopotential on this center.
    6         40           12
                                      F and up 
                                                     0      645.9321873       -0.04258430    0.00000000
                                                     1      134.7547401      -20.22224090    0.00000000
                                                     2       42.3074619     -101.86951720    0.00000000
                                                     2       12.0003227      -41.61957840    0.00000000
                                                     2        4.1260454       -4.69861600    0.00000000
                                      S - F
                                                     0      117.6251862        2.79105590    0.00000000
                                                     1       22.9646089       41.94894590    0.00000000
                                                     2        4.5225298       67.72718660    0.00000000
                                      P - F
                                                     0       47.1953145        4.99111440    0.00000000
                                                     1       48.0356033       20.71931720    0.00000000
                                                     2       19.4541456      195.58677580    0.00000000
                                                     2        4.0512875       48.28771760    0.00000000
                                      D - F
                                                     0       79.9073983        3.00492260    0.00000000
                                                     1       45.8263798       25.93779890    0.00000000
                                                     2       26.9903522      125.12449340    0.00000000
                                                     2        9.6835718       70.76340220    0.00000000
                                                     2        2.7995666       15.04928220    0.00000000
    7         14
                                   No pseudopotential on this center.
    8         14
                                   No pseudopotential on this center.
    9         14
                                   No pseudopotential on this center.
   10          8
                                   No pseudopotential on this center.
   11         40           12
                                      F and up 
                                                     0      645.9321873       -0.04258430    0.00000000
                                                     1      134.7547401      -20.22224090    0.00000000
                                                     2       42.3074619     -101.86951720    0.00000000
                                                     2       12.0003227      -41.61957840    0.00000000
                                                     2        4.1260454       -4.69861600    0.00000000
                                      S - F
                                                     0      117.6251862        2.79105590    0.00000000
                                                     1       22.9646089       41.94894590    0.00000000
                                                     2        4.5225298       67.72718660    0.00000000
                                      P - F
                                                     0       47.1953145        4.99111440    0.00000000
                                                     1       48.0356033       20.71931720    0.00000000
                                                     2       19.4541456      195.58677580    0.00000000
                                                     2        4.0512875       48.28771760    0.00000000
                                      D - F
                                                     0       79.9073983        3.00492260    0.00000000
                                                     1       45.8263798       25.93779890    0.00000000
                                                     2       26.9903522      125.12449340    0.00000000
                                                     2        9.6835718       70.76340220    0.00000000
                                                     2        2.7995666       15.04928220    0.00000000
   12          8
                                   No pseudopotential on this center.
   13         40           12
                                      F and up 
                                                     0      645.9321873       -0.04258430    0.00000000
                                                     1      134.7547401      -20.22224090    0.00000000
                                                     2       42.3074619     -101.86951720    0.00000000
                                                     2       12.0003227      -41.61957840    0.00000000
                                                     2        4.1260454       -4.69861600    0.00000000
                                      S - F
                                                     0      117.6251862        2.79105590    0.00000000
                                                     1       22.9646089       41.94894590    0.00000000
                                                     2        4.5225298       67.72718660    0.00000000
                                      P - F
                                                     0       47.1953145        4.99111440    0.00000000
                                                     1       48.0356033       20.71931720    0.00000000
                                                     2       19.4541456      195.58677580    0.00000000
                                                     2        4.0512875       48.28771760    0.00000000
                                      D - F
                                                     0       79.9073983        3.00492260    0.00000000
                                                     1       45.8263798       25.93779890    0.00000000
                                                     2       26.9903522      125.12449340    0.00000000
                                                     2        9.6835718       70.76340220    0.00000000
                                                     2        2.7995666       15.04928220    0.00000000
   14          8
                                   No pseudopotential on this center.
   15         40           12
                                      F and up 
                                                     0      645.9321873       -0.04258430    0.00000000
                                                     1      134.7547401      -20.22224090    0.00000000
                                                     2       42.3074619     -101.86951720    0.00000000
                                                     2       12.0003227      -41.61957840    0.00000000
                                                     2        4.1260454       -4.69861600    0.00000000
                                      S - F
                                                     0      117.6251862        2.79105590    0.00000000
                                                     1       22.9646089       41.94894590    0.00000000
                                                     2        4.5225298       67.72718660    0.00000000
                                      P - F
                                                     0       47.1953145        4.99111440    0.00000000
                                                     1       48.0356033       20.71931720    0.00000000
                                                     2       19.4541456      195.58677580    0.00000000
                                                     2        4.0512875       48.28771760    0.00000000
                                      D - F
                                                     0       79.9073983        3.00492260    0.00000000
                                                     1       45.8263798       25.93779890    0.00000000
                                                     2       26.9903522      125.12449340    0.00000000
                                                     2        9.6835718       70.76340220    0.00000000
                                                     2        2.7995666       15.04928220    0.00000000
   16          8
                                   No pseudopotential on this center.
   17          8
                                   No pseudopotential on this center.
   18          8
                                   No pseudopotential on this center.
   19          8
                                   No pseudopotential on this center.
   20          8
                                   No pseudopotential on this center.
   21          8
                                   No pseudopotential on this center.
   22          8
                                   No pseudopotential on this center.
   23          8
                                   No pseudopotential on this center.
   24          8
                                   No pseudopotential on this center.
   25          1
                                   No pseudopotential on this center.
   26          1
                                   No pseudopotential on this center.
   27          1
                                   No pseudopotential on this center.
   28          1
                                   No pseudopotential on this center.
   29          1
                                   No pseudopotential on this center.
   30          1
                                   No pseudopotential on this center.
   31          1
                                   No pseudopotential on this center.
   32          1
                                   No pseudopotential on this center.
   33          1
                                   No pseudopotential on this center.
   34          8
                                   No pseudopotential on this center.
   35          1
                                   No pseudopotential on this center.
   36          8
                                   No pseudopotential on this center.
   37          1
                                   No pseudopotential on this center.
   38          8
                                   No pseudopotential on this center.
   39          1
                                   No pseudopotential on this center.
   40          8
                                   No pseudopotential on this center.
   41          1
                                   No pseudopotential on this center.
   42          8
                                   No pseudopotential on this center.
   43          1
                                   No pseudopotential on this center.
   44          8
                                   No pseudopotential on this center.
   45          1
                                   No pseudopotential on this center.
   46          8
                                   No pseudopotential on this center.
   47          1
                                   No pseudopotential on this center.
   48          8
                                   No pseudopotential on this center.
   49          1
                                   No pseudopotential on this center.
   50          8
                                   No pseudopotential on this center.
   51          1
                                   No pseudopotential on this center.
 ======================================================================================================
 There are   637 symmetry adapted cartesian basis functions of A   symmetry.
 There are   600 symmetry adapted basis functions of A   symmetry.
   600 basis functions,  1230 primitive gaussians,   637 cartesian basis functions
   161 alpha electrons      161 beta electrons
       nuclear repulsion energy      5754.6524033938 Hartrees.
 NAtoms=   51 NActive=   51 NUniq=   51 SFac= 1.00D+00 NAtFMM=   60 NAOKFM=F Big=F
 Integral buffers will be    131072 words long.
 Raffenetti 2 integral format.
 Two-electron integral symmetry is turned on.
 One-electron integrals computed using PRISM.
   1 Symmetry operations used in ECPInt.
 ECPInt:  NShTT=   21321 NPrTT=  126439 LenC2=   15663 LenP2D=   52875.
 LDataN:  DoStor=T MaxTD1= 5 Len=  102
 Number of processors reduced to  12 by ecpmxn.
 NBasis=   600 RedAO= T EigKep=  2.59D-03  NBF=   600
 NBsUse=   600 1.00D-06 EigRej= -1.00D+00 NBFU=   600
 Defaulting to unpruned grid for atomic number  40.
 Defaulting to unpruned grid for atomic number  40.
 Defaulting to unpruned grid for atomic number  40.
 ExpMin= 2.43D-02 ExpMax= 1.61D+04 ExpMxC= 2.43D+03 IAcc=3 IRadAn=         5 AccDes= 0.00D+00
 Harris functional with IExCor=  402 and IRadAn=       5 diagonalized for initial guess.
 HarFok:  IExCor=  402 AccDes= 0.00D+00 IRadAn=         5 IDoV= 1 UseB2=F ITyADJ=14
 ICtDFT=  3500011 ScaDFX=  1.000000  1.000000  1.000000  1.000000
 Defaulting to unpruned grid for atomic number  40.
 FoFCou: FMM=F IPFlag=           0 FMFlag=      100000 FMFlg1=           0
         NFxFlg=           0 DoJE=T BraDBF=F KetDBF=T FulRan=T
         wScrn=  0.000000 ICntrl=       500 IOpCl=  0 I1Cent=   200000004 NGrid=           0
         NMat0=    1 NMatS0=      1 NMatT0=    0 NMatD0=    1 NMtDS0=    0 NMtDT0=    0
 Petite list used in FoFCou.
 Requested convergence on RMS density matrix=1.00D-08 within 128 cycles.
 Requested convergence on MAX density matrix=1.00D-06.
 Requested convergence on             energy=1.00D-06.
 No special actions if energy rises.
 Defaulting to unpruned grid for atomic number  40.
 Defaulting to unpruned grid for atomic number  40.
 Defaulting to unpruned grid for atomic number  40.
 Defaulting to unpruned grid for atomic number  40.
 Defaulting to unpruned grid for atomic number  40.
 Defaulting to unpruned grid for atomic number  40.
 Defaulting to unpruned grid for atomic number  40.
 Defaulting to unpruned grid for atomic number  40.
 Defaulting to unpruned grid for atomic number  40.
 Defaulting to unpruned grid for atomic number  40.
 Defaulting to unpruned grid for atomic number  40.
 Defaulting to unpruned grid for atomic number  40.
 Defaulting to unpruned grid for atomic number  40.
 Defaulting to unpruned grid for atomic number  40.
 Defaulting to unpruned grid for atomic number  40.
 Defaulting to unpruned grid for atomic number  40.
 SCF Done:  E(RB3LYP) =  -3237.52770828     A.U. after   17 cycles
            NFock= 17  Conv=0.72D-08     -V/T= 2.0472

 **********************************************************************

            Population analysis using the SCF Density.

 **********************************************************************

 Orbital symmetries:
       Occupied  (A) (A) (A) (A) (A) (A) (A) (A) (A) (A) (A) (A)
                 (A) (A) (A) (A) (A) (A) (A) (A) (A) (A) (A) (A)
                 (A) (A) (A) (A) (A) (A) (A) (A) (A) (A) (A) (A)
                 (A) (A) (A) (A) (A) (A) (A) (A) (A) (A) (A) (A)
                 (A) (A) (A) (A) (A) (A) (A) (A) (A) (A) (A) (A)
                 (A) (A) (A) (A) (A) (A) (A) (A) (A) (A) (A) (A)
                 (A) (A) (A) (A) (A) (A) (A) (A) (A) (A) (A) (A)
                 (A) (A) (A) (A) (A) (A) (A) (A) (A) (A) (A) (A)
                 (A) (A) (A) (A) (A) (A) (A) (A) (A) (A) (A) (A)
                 (A) (A) (A) (A) (A) (A) (A) (A) (A) (A) (A) (A)
                 (A) (A) (A) (A) (A) (A) (A) (A) (A) (A) (A) (A)
                 (A) (A) (A) (A) (A) (A) (A) (A) (A) (A) (A) (A)
                 (A) (A) (A) (A) (A) (A) (A) (A) (A) (A) (A) (A)
                 (A) (A) (A) (A) (A)
       Virtual   (A) (A) (A) (A) (A) (A) (A) (A) (A) (A) (A) (A)
                 (A) (A) (A) (A) (A) (A) (A) (A) (A) (A) (A) (A)
                 (A) (A) (A) (A) (A) (A) (A) (A) (A) (A) (A) (A)
                 (A) (A) (A) (A) (A) (A) (A) (A) (A) (A) (A) (A)
                 (A) (A) (A) (A) (A) (A) (A) (A) (A) (A) (A) (A)
                 (A) (A) (A) (A) (A) (A) (A) (A) (A) (A) (A) (A)
                 (A) (A) (A) (A) (A) (A) (A) (A) (A) (A) (A) (A)
                 (A) (A) (A) (A) (A) (A) (A) (A) (A) (A) (A) (A)
                 (A) (A) (A) (A) (A) (A) (A) (A) (A) (A) (A) (A)
                 (A) (A) (A) (A) (A) (A) (A) (A) (A) (A) (A) (A)
                 (A) (A) (A) (A) (A) (A) (A) (A) (A) (A) (A) (A)
                 (A) (A) (A) (A) (A) (A) (A) (A) (A) (A) (A) (A)
                 (A) (A) (A) (A) (A) (A) (A) (A) (A) (A) (A) (A)
                 (A) (A) (A) (A) (A) (A) (A) (A) (A) (A) (A) (A)
                 (A) (A) (A) (A) (A) (A) (A) (A) (A) (A) (A) (A)
                 (A) (A) (A) (A) (A) (A) (A) (A) (A) (A) (A) (A)
                 (A) (A) (A) (A) (A) (A) (A) (A) (A) (A) (A) (A)
                 (A) (A) (A) (A) (A) (A) (A) (A) (A) (A) (A) (A)
                 (A) (A) (A) (A) (A) (A) (A) (A) (A) (A) (A) (A)
                 (A) (A) (A) (A) (A) (A) (A) (A) (A) (A) (A) (A)
                 (A) (A) (A) (A) (A) (A) (A) (A) (A) (A) (A) (A)
                 (A) (A) (A) (A) (A) (A) (A) (A) (A) (A) (A) (A)
                 (A) (A) (A) (A) (A) (A) (A) (A) (A) (A) (A) (A)
                 (A) (A) (A) (A) (A) (A) (A) (A) (A) (A) (A) (A)
                 (A) (A) (A) (A) (A) (A) (A) (A) (A) (A) (A) (A)
                 (A) (A) (A) (A) (A) (A) (A) (A) (A) (A) (A) (A)
                 (A) (A) (A) (A) (A) (A) (A) (A) (A) (A) (A) (A)
                 (A) (A) (A) (A) (A) (A) (A) (A) (A) (A) (A) (A)
                 (A) (A) (A) (A) (A) (A) (A) (A) (A) (A) (A) (A)
                 (A) (A) (A) (A) (A) (A) (A) (A) (A) (A) (A) (A)
                 (A) (A) (A) (A) (A) (A) (A) (A) (A) (A) (A) (A)
                 (A) (A) (A) (A) (A) (A) (A) (A) (A) (A) (A) (A)
                 (A) (A) (A) (A) (A) (A) (A) (A) (A) (A) (A) (A)
                 (A) (A) (A) (A) (A) (A) (A) (A) (A) (A) (A) (A)
                 (A) (A) (A) (A) (A) (A) (A) (A) (A) (A) (A) (A)
                 (A) (A) (A) (A) (A) (A) (A) (A) (A) (A) (A) (A)
                 (A) (A) (A) (A) (A) (A) (A)
 The electronic state is 1-A.
 Alpha  occ. eigenvalues --  -66.22199 -66.21958 -66.21272 -66.20319 -19.17394
 Alpha  occ. eigenvalues --  -19.17132 -19.16458 -19.16293 -19.16251 -19.15978
 Alpha  occ. eigenvalues --  -19.15843 -19.15829 -19.15693 -19.15487 -19.15338
 Alpha  occ. eigenvalues --  -19.14790 -19.14726 -19.14479 -19.14451 -19.14385
 Alpha  occ. eigenvalues --  -19.14360 -19.14170 -19.14042 -19.13571 -19.13469
 Alpha  occ. eigenvalues --  -19.13331 -19.12623 -19.12144 -19.11686  -5.36193
 Alpha  occ. eigenvalues --   -5.36190  -5.35481  -5.34528  -3.72224  -3.72154
 Alpha  occ. eigenvalues --   -3.72147  -3.72130  -3.72098  -3.72081  -3.71545
 Alpha  occ. eigenvalues --   -3.71394  -3.71322  -3.70523  -3.70475  -3.70404
 Alpha  occ. eigenvalues --   -2.08164  -2.07195  -2.06909  -2.05146  -1.29237
 Alpha  occ. eigenvalues --   -1.29000  -1.28387  -1.28174  -1.27996  -1.27796
 Alpha  occ. eigenvalues --   -1.27404  -1.27277  -1.26905  -1.25786  -1.25538
 Alpha  occ. eigenvalues --   -1.25209  -1.05476  -1.04662  -1.03233  -1.02169
 Alpha  occ. eigenvalues --   -1.01945  -1.01473  -1.01258  -0.99878  -0.99786
 Alpha  occ. eigenvalues --   -0.98963  -0.98699  -0.98124  -0.98083  -0.97348
 Alpha  occ. eigenvalues --   -0.96753  -0.95552  -0.95361  -0.95027  -0.94522
 Alpha  occ. eigenvalues --   -0.93920  -0.93694  -0.92366  -0.92130  -0.89716
 Alpha  occ. eigenvalues --   -0.88614  -0.61949  -0.59791  -0.58946  -0.56369
 Alpha  occ. eigenvalues --   -0.54576  -0.53997  -0.52793  -0.52302  -0.51745
 Alpha  occ. eigenvalues --   -0.51337  -0.51152  -0.51104  -0.50924  -0.50790
 Alpha  occ. eigenvalues --   -0.50194  -0.49375  -0.48937  -0.47778  -0.46798
 Alpha  occ. eigenvalues --   -0.45727  -0.45620  -0.44791  -0.42869  -0.42273
 Alpha  occ. eigenvalues --   -0.42006  -0.41564  -0.41088  -0.40752  -0.40412
 Alpha  occ. eigenvalues --   -0.39922  -0.39786  -0.39449  -0.39152  -0.38609
 Alpha  occ. eigenvalues --   -0.38125  -0.37691  -0.37503  -0.37272  -0.36909
 Alpha  occ. eigenvalues --   -0.36716  -0.36206  -0.36131  -0.35932  -0.35762
 Alpha  occ. eigenvalues --   -0.35482  -0.35380  -0.35233  -0.35068  -0.34975
 Alpha  occ. eigenvalues --   -0.34718  -0.34286  -0.34179  -0.34112  -0.33718
 Alpha  occ. eigenvalues --   -0.33584  -0.33377  -0.33094  -0.32991  -0.32756
 Alpha  occ. eigenvalues --   -0.32661  -0.32608  -0.32400  -0.32124  -0.31920
 Alpha  occ. eigenvalues --   -0.31657  -0.31460  -0.31264  -0.31052  -0.30889
 Alpha  occ. eigenvalues --   -0.30870  -0.30301  -0.29835  -0.29551  -0.29131
 Alpha  occ. eigenvalues --   -0.28647
 Alpha virt. eigenvalues --   -0.05217  -0.04798  -0.04737  -0.03238  -0.02923
 Alpha virt. eigenvalues --   -0.02647  -0.01948  -0.01553  -0.01429  -0.00999
 Alpha virt. eigenvalues --   -0.00762  -0.00645  -0.00407   0.00011   0.00400
 Alpha virt. eigenvalues --    0.00651   0.00876   0.01377   0.01567   0.01773
 Alpha virt. eigenvalues --    0.02272   0.02464   0.02764   0.02918   0.03270
 Alpha virt. eigenvalues --    0.03729   0.04064   0.04295   0.04929   0.05476
 Alpha virt. eigenvalues --    0.05772   0.06139   0.06191   0.06817   0.07115
 Alpha virt. eigenvalues --    0.08086   0.08301   0.08658   0.09977   0.10300
 Alpha virt. eigenvalues --    0.10685   0.11450   0.11753   0.12701   0.12936
 Alpha virt. eigenvalues --    0.13382   0.13927   0.14539   0.15398   0.15466
 Alpha virt. eigenvalues --    0.15976   0.16252   0.16591   0.16873   0.17405
 Alpha virt. eigenvalues --    0.17806   0.18161   0.18277   0.18683   0.18944
 Alpha virt. eigenvalues --    0.19364   0.19625   0.19890   0.20788   0.21048
 Alpha virt. eigenvalues --    0.21128   0.21366   0.21820   0.22093   0.22446
 Alpha virt. eigenvalues --    0.22730   0.23239   0.23321   0.23812   0.24279
 Alpha virt. eigenvalues --    0.24388   0.24755   0.25205   0.25655   0.25905
 Alpha virt. eigenvalues --    0.26472   0.26934   0.27405   0.27486   0.28415
 Alpha virt. eigenvalues --    0.28762   0.29427   0.29870   0.30080   0.30239
 Alpha virt. eigenvalues --    0.30677   0.31267   0.32153   0.32647   0.33416
 Alpha virt. eigenvalues --    0.33888   0.34715   0.35132   0.35377   0.36165
 Alpha virt. eigenvalues --    0.36478   0.37100   0.37424   0.37842   0.38326
 Alpha virt. eigenvalues --    0.39549   0.39833   0.41296   0.42133   0.42207
 Alpha virt. eigenvalues --    0.43535   0.44718   0.44903   0.46388   0.46633
 Alpha virt. eigenvalues --    0.49035   0.50603   0.52489   0.55381   0.56360
 Alpha virt. eigenvalues --    0.57871   0.59278   0.60309   0.64684   0.66422
 Alpha virt. eigenvalues --    0.68621   0.76068   0.76768   0.78012   0.78656
 Alpha virt. eigenvalues --    0.79817   0.80137   0.80976   0.81527   0.82113
 Alpha virt. eigenvalues --    0.83677   0.84150   0.84571   0.85403   0.86471
 Alpha virt. eigenvalues --    0.86649   0.87312   0.88907   0.89714   0.90171
 Alpha virt. eigenvalues --    0.90689   0.91688   0.91977   0.92424   0.93056
 Alpha virt. eigenvalues --    0.93134   0.94025   0.94610   0.94732   0.94976
 Alpha virt. eigenvalues --    0.96240   0.96558   0.96882   0.97419   0.97610
 Alpha virt. eigenvalues --    0.97793   0.98382   0.98768   0.98827   0.99261
 Alpha virt. eigenvalues --    0.99358   1.00663   1.01088   1.01293   1.01679
 Alpha virt. eigenvalues --    1.02753   1.03229   1.03580   1.03926   1.04705
 Alpha virt. eigenvalues --    1.05182   1.05753   1.06098   1.06517   1.07233
 Alpha virt. eigenvalues --    1.07644   1.07996   1.08198   1.08581   1.09011
 Alpha virt. eigenvalues --    1.10014   1.10121   1.10536   1.11107   1.11891
 Alpha virt. eigenvalues --    1.12849   1.13108   1.13849   1.14112   1.15127
 Alpha virt. eigenvalues --    1.15372   1.16405   1.16821   1.17447   1.17651
 Alpha virt. eigenvalues --    1.18138   1.18413   1.19073   1.19304   1.19965
 Alpha virt. eigenvalues --    1.20673   1.21165   1.21711   1.22045   1.22330
 Alpha virt. eigenvalues --    1.22654   1.23660   1.23829   1.24313   1.25726
 Alpha virt. eigenvalues --    1.26195   1.27812   1.28226   1.28602   1.28979
 Alpha virt. eigenvalues --    1.29459   1.30290   1.30951   1.32249   1.32669
 Alpha virt. eigenvalues --    1.34479   1.35411   1.35649   1.37333   1.38888
 Alpha virt. eigenvalues --    1.42384   1.43879   1.45482   1.46584   1.47259
 Alpha virt. eigenvalues --    1.48351   1.48863   1.50167   1.50654   1.51083
 Alpha virt. eigenvalues --    1.51423   1.52712   1.53105   1.53882   1.54234
 Alpha virt. eigenvalues --    1.54605   1.54876   1.55663   1.56082   1.56700
 Alpha virt. eigenvalues --    1.56904   1.57055   1.57947   1.58317   1.58587
 Alpha virt. eigenvalues --    1.58784   1.59170   1.60102   1.60671   1.61418
 Alpha virt. eigenvalues --    1.61514   1.61834   1.62497   1.62826   1.63272
 Alpha virt. eigenvalues --    1.63370   1.64134   1.64711   1.65474   1.65521
 Alpha virt. eigenvalues --    1.65977   1.66064   1.66530   1.67255   1.67994
 Alpha virt. eigenvalues --    1.68376   1.68949   1.70038   1.70453   1.71140
 Alpha virt. eigenvalues --    1.71790   1.72095   1.72367   1.72497   1.73236
 Alpha virt. eigenvalues --    1.73581   1.73791   1.74228   1.75002   1.75412
 Alpha virt. eigenvalues --    1.76227   1.76361   1.76943   1.77860   1.78218
 Alpha virt. eigenvalues --    1.78596   1.78878   1.78993   1.79468   1.79923
 Alpha virt. eigenvalues --    1.80380   1.80921   1.81242   1.81531   1.82164
 Alpha virt. eigenvalues --    1.82326   1.82511   1.82680   1.83042   1.83276
 Alpha virt. eigenvalues --    1.83629   1.83988   1.84361   1.85555   1.85602
 Alpha virt. eigenvalues --    1.86037   1.86227   1.86557   1.86760   1.87092
 Alpha virt. eigenvalues --    1.87485   1.87900   1.88540   1.88768   1.89134
 Alpha virt. eigenvalues --    1.89564   1.90601   1.91157   1.92541   1.92581
 Alpha virt. eigenvalues --    1.93005   1.94458   1.94944   1.96272   1.97068
 Alpha virt. eigenvalues --    1.97760   1.98445   2.00079   2.01170   2.02029
 Alpha virt. eigenvalues --    2.04993   2.06657   2.09085   2.11283   2.13035
 Alpha virt. eigenvalues --    2.15191   2.19317   2.32136   2.33664   2.34396
 Alpha virt. eigenvalues --    2.34830   2.35043   2.35420   2.36232   2.36873
 Alpha virt. eigenvalues --    2.36935   2.37854   2.39642   2.39713   2.40275
 Alpha virt. eigenvalues --    2.40731   2.40984   2.42390   2.44530   2.45097
 Alpha virt. eigenvalues --    2.46471   2.48282   2.49556   2.52166   2.55799
 Alpha virt. eigenvalues --    2.56465   2.58351   2.58834   2.59732   2.60244
 Alpha virt. eigenvalues --    2.60972   2.61723   2.61787   2.61987   2.62137
 Alpha virt. eigenvalues --    2.62486   2.62850   2.63003   2.63108   2.63131
 Alpha virt. eigenvalues --    2.63505   2.63824   2.64099   2.64550   2.65142
 Alpha virt. eigenvalues --    2.65502   2.65550   2.65689   2.65957   2.66665
 Alpha virt. eigenvalues --    2.67432   2.68483   2.68807   2.69554   2.69606
 Alpha virt. eigenvalues --    2.71232   2.72802   2.74007   2.74629   2.74707
 Alpha virt. eigenvalues --    2.76826   2.76991   2.77222   2.77750   2.78166
 Alpha virt. eigenvalues --    2.81334   2.82384   2.84683   2.86663   2.87414
 Alpha virt. eigenvalues --    2.94353   3.06005   3.40497   3.40753   3.40952
 Alpha virt. eigenvalues --    3.41339   3.41992   3.43344   3.43777   3.45219
 Alpha virt. eigenvalues --    3.46101   3.47077   3.47696   3.48851   3.49815
 Alpha virt. eigenvalues --    3.51382   3.54722   3.55209   3.55847   3.72611
 Alpha virt. eigenvalues --    4.75117   6.27761   6.71215   7.77099
          Condensed to atoms (all electrons):
 Mulliken charges:
               1
     1  Si   1.296437
     2  O   -0.651828
     3  O   -0.648829
     4  O   -0.647194
     5  O   -0.749346
     6  Zr   1.618966
     7  Si   1.131390
     8  Si   1.165521
     9  Si   1.136871
    10  O   -0.821245
    11  Zr   1.493176
    12  O   -0.922352
    13  Zr   1.582246
    14  O   -0.827924
    15  Zr   1.550178
    16  O   -0.626874
    17  O   -0.574093
    18  O   -0.666227
    19  O   -0.628293
    20  O   -0.607922
    21  O   -0.696430
    22  O   -0.577644
    23  O   -0.653152
    24  O   -0.618370
    25  H    0.355059
    26  H    0.334305
    27  H    0.367600
    28  H    0.370318
    29  H    0.365638
    30  H    0.337979
    31  H    0.336718
    32  H    0.440369
    33  H    0.344286
    34  O   -0.694995
    35  H    0.332666
    36  O   -0.706601
    37  H    0.366038
    38  O   -0.748372
    39  H    0.331525
    40  O   -0.763172
    41  H    0.371989
    42  O   -0.693892
    43  H    0.334479
    44  O   -0.698803
    45  H    0.335632
    46  O   -0.761845
    47  H    0.380748
    48  O   -0.742189
    49  H    0.340582
    50  O   -0.673219
    51  H    0.380092
 Sum of Mulliken charges =  -0.00000
 Mulliken charges with hydrogens summed into heavy atoms:
               1
     1  Si   1.296437
     2  O   -0.651828
     3  O   -0.648829
     4  O   -0.647194
     5  O   -0.749346
     6  Zr   1.618966
     7  Si   1.131390
     8  Si   1.165521
     9  Si   1.136871
    10  O   -0.821245
    11  Zr   1.493176
    12  O   -0.922352
    13  Zr   1.582246
    14  O   -0.827924
    15  Zr   1.550178
    16  O   -0.288895
    17  O   -0.237375
    18  O   -0.300589
    19  O   -0.284007
    20  O   -0.237604
    21  O   -0.256062
    22  O   -0.243338
    23  O   -0.298093
    24  O   -0.250770
    34  O   -0.362329
    36  O   -0.340564
    38  O   -0.416847
    40  O   -0.391184
    42  O   -0.359412
    44  O   -0.363171
    46  O   -0.381098
    48  O   -0.401606
    50  O   -0.293127
 Electronic spatial extent (au):  <R**2>=          23987.7059
 Charge=             -0.0000 electrons
 Dipole moment (field-independent basis, Debye):
    X=              1.6638    Y=              4.6411    Z=              0.3658  Tot=              4.9439
 Quadrupole moment (field-independent basis, Debye-Ang):
   XX=           -292.2083   YY=           -258.7106   ZZ=           -262.9010
   XY=              3.5041   XZ=              5.6349   YZ=             -7.4583
 Traceless Quadrupole moment (field-independent basis, Debye-Ang):
   XX=            -20.9350   YY=             12.5627   ZZ=              8.3723
   XY=              3.5041   XZ=              5.6349   YZ=             -7.4583
 Octapole moment (field-independent basis, Debye-Ang**2):
  XXX=            305.6463  YYY=             99.3698  ZZZ=            -34.1025  XYY=            156.3791
  XXY=             74.4858  XXZ=            -56.4427  XZZ=            108.1284  YZZ=              5.1581
  YYZ=            -22.6321  XYZ=             53.4878
 Hexadecapole moment (field-independent basis, Debye-Ang**3):
 XXXX=         -21303.8538 YYYY=          -5671.7284 ZZZZ=          -4691.5206 XXXY=             54.3125
 XXXZ=            -28.6588 YYYX=             24.1707 YYYZ=             11.4310 ZZZX=             13.3345
 ZZZY=            -43.7863 XXYY=          -4472.6069 XXZZ=          -3571.1132 YYZZ=          -1723.3180
 XXYZ=           -467.2317 YYXZ=           -127.5287 ZZXY=            200.0258
 N-N= 5.754652403394D+03 E-N=-1.911004990061D+04  KE= 3.091747778066D+03
   1 Symmetry operations used in ECPInt.
 ECPInt:  NShTT=   21321 NPrTT=  126439 LenC2=   15663 LenP2D=   52875.
 LDataN:  DoStor=T MaxTD1= 6 Len=  172
 Number of processors reduced to  14 by ecpmxn.
 Calling FoFJK, ICntrl=      2127 FMM=F ISym2X=0 I1Cent= 0 IOpClX= 0 NMat=1 NMatS=1 NMatT=0.
 Defaulting to unpruned grid for atomic number  40.
 Defaulting to unpruned grid for atomic number  40.
 Defaulting to unpruned grid for atomic number  40.
 Defaulting to unpruned grid for atomic number  40.
 Defaulting to unpruned grid for atomic number  40.
 Defaulting to unpruned grid for atomic number  40.
 Defaulting to unpruned grid for atomic number  40.
 Defaulting to unpruned grid for atomic number  40.
 Defaulting to unpruned grid for atomic number  40.
 Defaulting to unpruned grid for atomic number  40.
 Defaulting to unpruned grid for atomic number  40.
 Defaulting to unpruned grid for atomic number  40.
 Defaulting to unpruned grid for atomic number  40.
 Defaulting to unpruned grid for atomic number  40.
 Defaulting to unpruned grid for atomic number  40.
 Defaulting to unpruned grid for atomic number  40.
 ***** Axes restored to original set *****
 -------------------------------------------------------------------
 Center     Atomic                   Forces (Hartrees/Bohr)
 Number     Number              X              Y              Z
 -------------------------------------------------------------------
      1       14          -0.004369392    0.000453359   -0.002913782
      2        8           0.000462582   -0.000307694   -0.002129179
      3        8           0.000231537   -0.000104364    0.000223614
      4        8           0.000224491    0.000007388    0.000173251
      5        8          -0.000549000   -0.000108792    0.000992957
      6       40           0.003936464    0.000542669   -0.003066343
      7       14           0.001785423    0.003586182    0.003611892
      8       14          -0.000516304    0.000162216    0.000092205
      9       14          -0.000313206   -0.000151112   -0.000207468
     10        8          -0.001060388    0.001213832    0.000294084
     11       40           0.000625127   -0.000881733    0.000296135
     12        8           0.020522367    0.011539259   -0.018532403
     13       40           0.007054012   -0.016356979    0.018826339
     14        8          -0.001149879   -0.000856473   -0.000162272
     15       40           0.000855201    0.000255370    0.000277521
     16        8           0.000117241   -0.000011981    0.000037880
     17        8           0.000070662   -0.000073054   -0.000027600
     18        8           0.000070064   -0.000034308   -0.000085713
     19        8           0.000243906   -0.000809179    0.000161830
     20        8          -0.001494174    0.000276482   -0.000595585
     21        8          -0.077607624    0.011354875   -0.000091729
     22        8           0.000051654    0.000042236    0.000092183
     23        8           0.000071273    0.000015100    0.000059526
     24        8           0.000125481    0.000094994    0.000138486
     25        1          -0.000010128    0.000006143   -0.000021588
     26        1          -0.000008857   -0.000021743   -0.000026482
     27        1          -0.000163705   -0.000188516   -0.000121121
     28        1          -0.000278724    0.000060504    0.000298860
     29        1          -0.000028546    0.000023184   -0.000040686
     30        1          -0.000010130    0.000001583   -0.000032116
     31        1          -0.000011990    0.000059187   -0.000007261
     32        1           0.001073183    0.010748799   -0.011744160
     33        1          -0.000435855   -0.000130979   -0.000248503
     34        8          -0.000055236    0.000101225    0.000105638
     35        1           0.000016329   -0.000009702   -0.000026949
     36        8          -0.000123918    0.000064595   -0.000134490
     37        1           0.000064070   -0.000062835    0.000053926
     38        8           0.000100909    0.000289098   -0.000223158
     39        1          -0.000012997   -0.000033700    0.000000019
     40        8          -0.000172509    0.000213686   -0.000377077
     41        1          -0.000087801   -0.000141180    0.000341339
     42        8          -0.000177508   -0.000045838    0.000131322
     43        1           0.000021327    0.000017264   -0.000010029
     44        8          -0.000056609   -0.000177464   -0.000134695
     45        1           0.000020598    0.000040602    0.000042587
     46        8           0.000371119    0.000494315   -0.000585997
     47        1          -0.000248797    0.000019080    0.000378150
     48        8           0.000274472    0.000332340   -0.000836003
     49        1          -0.000229680   -0.000299550    0.000159643
     50        8           0.041761305   -0.023440582    0.017084252
     51        1           0.009022157    0.002232190   -0.001491246
 -------------------------------------------------------------------
 Cartesian Forces:  Max     0.077607624 RMS     0.008383160

 GradGradGradGradGradGradGradGradGradGradGradGradGradGradGradGradGradGrad
 Berny optimization.
 FormGI is forming the generalized inverse of G from B-inverse, IUseBI=4.
 Internal  Forces:  Max     0.637974269 RMS     0.064448588
 Search for a local minimum.
 Step number   1 out of a maximum of  229
 All quantities printed in internal units (Hartrees-Bohrs-Radians)
 Mixed Optimization -- RFO/linear search
 Second derivative matrix not updated -- first step.
 ITU=  0
     Eigenvalues ---    0.00230   0.00230   0.00230   0.00230   0.00230
     Eigenvalues ---    0.00230   0.00230   0.00230   0.00230   0.00230
     Eigenvalues ---    0.00230   0.00230   0.00230   0.00230   0.00230
     Eigenvalues ---    0.00230   0.03447   0.03470   0.03516   0.03601
     Eigenvalues ---    0.03614   0.03629   0.03654   0.03686   0.03816
     Eigenvalues ---    0.03823   0.03827   0.03839   0.03923   0.03964
     Eigenvalues ---    0.04008   0.04039   0.06239   0.08354   0.08564
     Eigenvalues ---    0.08974   0.09448   0.10123   0.10678   0.11232
     Eigenvalues ---    0.11368   0.11507   0.11595   0.11636   0.11773
     Eigenvalues ---    0.11825   0.11923   0.12003   0.12146   0.12566
     Eigenvalues ---    0.12661   0.12746   0.12781   0.12915   0.12948
     Eigenvalues ---    0.13420   0.16000   0.16000   0.16000   0.16000
     Eigenvalues ---    0.16000   0.16000   0.16000   0.16000   0.16000
     Eigenvalues ---    0.16000   0.16000   0.16000   0.16000   0.16000
     Eigenvalues ---    0.16000   0.16000   0.16000   0.16000   0.16475
     Eigenvalues ---    0.16653   0.16973   0.17555   0.17903   0.18060
     Eigenvalues ---    0.18629   0.18751   0.19259   0.19512   0.19624
     Eigenvalues ---    0.19663   0.19719   0.19731   0.19849   0.20192
     Eigenvalues ---    0.20247   0.20296   0.20320   0.20376   0.20393
     Eigenvalues ---    0.20422   0.20645   0.20651   0.20806   0.20823
     Eigenvalues ---    0.20868   0.21021   0.21050   0.21076   0.21270
     Eigenvalues ---    0.21906   0.25000   0.25000   0.25000   0.25000
     Eigenvalues ---    0.25000   0.25000   0.40115   0.40361   0.40848
     Eigenvalues ---    0.41777   0.41931   0.42098   0.42374   0.42741
     Eigenvalues ---    0.44274   0.44356   0.44406   0.44546   0.45586
     Eigenvalues ---    0.46106   0.46669   0.47064   0.51271   0.51296
     Eigenvalues ---    0.51607   0.51682   0.51719   0.52103   0.52343
     Eigenvalues ---    0.52512   0.53065   0.54681   0.54684   0.54736
     Eigenvalues ---    0.54744   0.54756   0.54764   0.55003   0.55452
     Eigenvalues ---    0.556791000.000001000.000001000.000001000.00000
     Eigenvalues --- 1000.000001000.000001000.000001000.000001000.00000
     Eigenvalues --- 1000.000001000.000001000.000001000.000001000.00000
     Eigenvalues --- 1000.000001000.000001000.000001000.000001000.00000
     Eigenvalues --- 1000.000001000.000001000.000001000.000001000.00000
     Eigenvalues --- 1000.000001000.000001000.000001000.000001000.00000
     Eigenvalues --- 1000.000001000.000001000.000001000.000001000.00000
     Eigenvalues --- 1000.000001000.000001000.000001000.000001000.00000
     Eigenvalues --- 1000.000001000.000001000.000001000.000001000.00000
     Eigenvalues --- 1000.000001000.000001000.000001000.000001000.00000
     Eigenvalues --- 1000.000001000.000001000.000001000.000001000.00000
     Eigenvalues --- 1000.000001000.000001000.000001000.000001000.00000
     Eigenvalues --- 1000.000001000.000001000.000001000.000001000.00000
     Eigenvalues --- 1000.000001000.000001000.000001000.000001000.00000
     Eigenvalues --- 1000.000001000.000001000.000001000.00000
 RFO step:  Lambda=-6.26028637D-01 EMin= 2.30000000D-03
 Linear search not attempted -- first point.
 Maximum step size (   0.300) exceeded in Quadratic search.
    -- Step size scaled by   0.420
 Iteration  1 RMS(Cart)=  0.24638415 RMS(Int)=  0.01374837
 Iteration  2 RMS(Cart)=  0.21340182 RMS(Int)=  0.00551299
 Iteration  3 RMS(Cart)=  0.01219275 RMS(Int)=  0.00023851
 Iteration  4 RMS(Cart)=  0.00002251 RMS(Int)=  0.00023814
 Iteration  5 RMS(Cart)=  0.00000000 RMS(Int)=  0.00023814
 Iteration  1 RMS(Cart)=  0.00000000 RMS(Int)=  0.00000000
 Variable       Old X    -DE/DX   Delta X   Delta X   Delta X     New X
                                 (Linear)    (Quad)   (Total)
    R1        3.09828  -0.02416   0.00000  -0.00950  -0.00950   3.08878
    R2        3.12499   0.00007   0.00000   0.00003   0.00003   3.12502
    R3        3.09671   0.00010   0.00000   0.00004   0.00004   3.09675
    R4        3.06649   0.06454   0.00000   0.02473   0.02473   3.09122
    R5        3.07712   0.00103   0.00000   0.00040   0.00040   3.07752
    R6        3.11691   0.00030   0.00000   0.00012   0.00012   3.11703
    R7        3.14118   0.00030   0.00000   0.00012   0.00012   3.14130
    R8        3.80050   0.08051   0.00000   0.04220   0.04220   3.84269
    R9        3.64783  -0.00088   0.00000  -0.00044  -0.00044   3.64739
   R10        3.82475   0.01068   0.00000   0.00564   0.00564   3.83040
   R11        3.72227  -0.00102   0.00000  -0.00052  -0.00052   3.72175
   R12        3.15098   0.00095   0.00000   0.00039   0.00039   3.15137
   R13        3.08301   0.00126   0.00000   0.00049   0.00049   3.08350
   R14        3.12149  -0.07126   0.00000  -0.02852  -0.02852   3.09297
   R15        3.12908  -0.00007   0.00000  -0.00003  -0.00003   3.12905
   R16        3.09506  -0.00003   0.00000  -0.00001  -0.00001   3.09505
   R17        3.12711  -0.00010   0.00000  -0.00004  -0.00004   3.12707
   R18        3.09730  -0.00007   0.00000  -0.00003  -0.00003   3.09727
   R19        3.14766  -0.00003   0.00000  -0.00001  -0.00001   3.14765
   R20        3.07084   0.00006   0.00000   0.00002   0.00002   3.07087
   R21        3.84641   0.00081   0.00000   0.00043   0.00043   3.84684
   R22        3.71853  -0.00011   0.00000  -0.00005  -0.00005   3.71848
   R23        3.67542  -0.00007   0.00000  -0.00004  -0.00004   3.67538
   R24        3.83858  -0.00033   0.00000  -0.00018  -0.00018   3.83840
   R25        3.72623   0.07260   0.00000   0.03714   0.03714   3.76337
   R26        3.78033  -0.00020   0.00000  -0.00010  -0.00010   3.78023
   R27        3.78652  -0.00024   0.00000  -0.00012  -0.00012   3.78640
   R28        3.66751  -0.01588   0.00000  -0.00795  -0.00795   3.65956
   R29        3.75387   0.00051   0.00000   0.00026   0.00026   3.75413
   R30        3.75845  -0.00014   0.00000  -0.00007  -0.00007   3.75838
   R31        3.69498  -0.00020   0.00000  -0.00010  -0.00010   3.69488
   R32        3.68180  -0.00016   0.00000  -0.00008  -0.00008   3.68172
   R33        1.82117   0.00003   0.00000   0.00001   0.00001   1.82117
   R34        1.82049   0.00002   0.00000   0.00001   0.00001   1.82050
   R35        1.85304   0.00000   0.00000   0.00000   0.00000   1.85304
   R36        1.82114   0.00010   0.00000   0.00003   0.00003   1.82117
   R37        1.84977   0.00005   0.00000   0.00002   0.00002   1.84979
   R38        1.84500   0.01215   0.00000   0.00445   0.00445   1.84946
   R39        1.82042   0.00001   0.00000   0.00001   0.00001   1.82042
   R40        1.83593   0.00002   0.00000   0.00001   0.00001   1.83594
   R41        1.84272  -0.00021   0.00000  -0.00008  -0.00008   1.84264
   R42        1.81829   0.00003   0.00000   0.00001   0.00001   1.81830
   R43        1.84905  -0.00001   0.00000  -0.00000  -0.00000   1.84905
   R44        1.82067   0.00003   0.00000   0.00001   0.00001   1.82068
   R45        1.85279   0.00037   0.00000   0.00014   0.00014   1.85293
   R46        1.81433   0.00003   0.00000   0.00001   0.00001   1.81434
   R47        1.81234   0.00003   0.00000   0.00001   0.00001   1.81235
   R48        1.84869  -0.00004   0.00000  -0.00001  -0.00001   1.84868
   R49        1.82060   0.00002   0.00000   0.00001   0.00001   1.82061
   R50        1.84112  -0.00851   0.00000  -0.00311  -0.00311   1.83802
    A1        1.89403  -0.11304   0.00000  -0.05791  -0.05763   1.83641
    A2        1.88617  -0.02277   0.00000  -0.01043  -0.01078   1.87539
    A3        1.87938   0.22705   0.00000   0.12018   0.12057   1.99995
    A4        1.91364   0.03267   0.00000   0.01084   0.00984   1.92348
    A5        1.92354  -0.04539   0.00000  -0.02372  -0.02318   1.90036
    A6        1.96515  -0.07788   0.00000  -0.03845  -0.03922   1.92593
    A7        2.84348  -0.29737   0.00000  -0.14261  -0.14261   2.70087
    A8        2.31720   0.00026   0.00000   0.00013   0.00013   2.31733
    A9        2.35610   0.00070   0.00000   0.00034   0.00034   2.35644
   A10        2.23323   0.63797   0.00000   0.00000   0.00000   2.23323
   A11        1.98022  -0.04380   0.00000  -0.02307  -0.02312   1.95710
   A12        1.98271   0.26772   0.00000   0.14370   0.14421   2.12692
   A13        1.99111  -0.08774   0.00000  -0.04474  -0.04507   1.94605
   A14        1.77332  -0.10564   0.00000  -0.05367  -0.05373   1.71959
   A15        1.88957   0.03566   0.00000   0.01090   0.00942   1.89899
   A16        1.82833  -0.07140   0.00000  -0.03607  -0.03601   1.79231
   A17        1.81235  -0.00365   0.00000  -0.00121  -0.00127   1.81108
   A18        1.98544  -0.00868   0.00000  -0.00500  -0.00499   1.98046
   A19        1.86767   0.02205   0.00000   0.01158   0.01153   1.87920
   A20        1.94580   0.00286   0.00000   0.00098   0.00100   1.94680
   A21        1.92845   0.01741   0.00000   0.00940   0.00938   1.93783
   A22        1.92030  -0.02682   0.00000  -0.01403  -0.01401   1.90630
   A23        1.94596  -0.00009   0.00000  -0.00005  -0.00005   1.94591
   A24        1.88055   0.00000   0.00000   0.00000   0.00000   1.88056
   A25        1.93311  -0.00001   0.00000  -0.00001  -0.00001   1.93311
   A26        1.93173   0.00003   0.00000   0.00002   0.00002   1.93175
   A27        1.82723  -0.00003   0.00000  -0.00002  -0.00002   1.82721
   A28        1.94617   0.00010   0.00000   0.00005   0.00005   1.94622
   A29        1.88532  -0.00009   0.00000  -0.00004  -0.00004   1.88528
   A30        1.89442  -0.00009   0.00000  -0.00004  -0.00004   1.89437
   A31        1.95715   0.00023   0.00000   0.00012   0.00012   1.95727
   A32        1.87632   0.00009   0.00000   0.00004   0.00004   1.87636
   A33        1.94135  -0.00011   0.00000  -0.00006  -0.00006   1.94129
   A34        1.90697  -0.00004   0.00000  -0.00002  -0.00002   1.90695
   A35        2.53227   0.00058   0.00000   0.00028   0.00028   2.53255
   A36        1.81826  -0.00016   0.00000  -0.00009  -0.00009   1.81817
   A37        1.87906  -0.00001   0.00000  -0.00000  -0.00000   1.87906
   A38        2.09285   0.00012   0.00000   0.00007   0.00007   2.09292
   A39        1.80039  -0.00003   0.00000  -0.00002  -0.00002   1.80037
   A40        1.73310  -0.00001   0.00000  -0.00001  -0.00001   1.73309
   A41        2.08557   0.00002   0.00000   0.00002   0.00002   2.08558
   A42        2.29331  -0.23957   0.00000  -0.11489  -0.11489   2.17842
   A43        1.83467  -0.02911   0.00000  -0.01467  -0.01469   1.81998
   A44        1.90442  -0.02754   0.00000  -0.01400  -0.01401   1.89040
   A45        1.85063   0.09052   0.00000   0.04882   0.04889   1.89952
   A46        1.91620   0.01298   0.00000   0.00389   0.00371   1.91990
   A47        1.99552  -0.02072   0.00000  -0.01059  -0.01061   1.98491
   A48        1.95546  -0.02478   0.00000  -0.01251  -0.01252   1.94293
   A49        2.44669  -0.00080   0.00000  -0.00039  -0.00039   2.44630
   A50        1.83016  -0.00031   0.00000  -0.00017  -0.00017   1.82999
   A51        1.92532   0.00008   0.00000   0.00004   0.00004   1.92536
   A52        1.89529   0.00004   0.00000   0.00001   0.00001   1.89531
   A53        1.89947   0.00017   0.00000   0.00009   0.00009   1.89956
   A54        1.93645   0.00002   0.00000   0.00001   0.00001   1.93645
   A55        1.97197  -0.00001   0.00000   0.00001   0.00001   1.97198
   A56        2.03455   0.00004   0.00000   0.00002   0.00002   2.03457
   A57        2.01642   0.00010   0.00000   0.00005   0.00005   2.01647
   A58        1.93923  -0.00007   0.00000  -0.00004  -0.00004   1.93919
   A59        2.03937   0.00047   0.00000   0.00025   0.00025   2.03962
   A60        1.98603   0.00067   0.00000   0.00036   0.00036   1.98639
[...]
     49          1           0        4.045664    0.750199    3.763419
     50          8           0        1.075007   -1.202230    4.037957
     51          1           0        0.117606   -1.091456    4.176951
 ---------------------------------------------------------------------
 Rotational constants (GHZ):           0.0883530           0.0394132           0.0376792

 **********************************************************************

            Population analysis using the SCF Density.

 **********************************************************************

 Orbital symmetries:
       Occupied  (A) (A) (A) (A) (A) (A) (A) (A) (A) (A) (A) (A)
                 (A) (A) (A) (A) (A) (A) (A) (A) (A) (A) (A) (A)
                 (A) (A) (A) (A) (A) (A) (A) (A) (A) (A) (A) (A)
                 (A) (A) (A) (A) (A) (A) (A) (A) (A) (A) (A) (A)
                 (A) (A) (A) (A) (A) (A) (A) (A) (A) (A) (A) (A)
                 (A) (A) (A) (A) (A) (A) (A) (A) (A) (A) (A) (A)
                 (A) (A) (A) (A) (A) (A) (A) (A) (A) (A) (A) (A)
                 (A) (A) (A) (A) (A) (A) (A) (A) (A) (A) (A) (A)
                 (A) (A) (A) (A) (A) (A) (A) (A) (A) (A) (A) (A)
                 (A) (A) (A) (A) (A) (A) (A) (A) (A) (A) (A) (A)
                 (A) (A) (A) (A) (A) (A) (A) (A) (A) (A) (A) (A)
                 (A) (A) (A) (A) (A) (A) (A) (A) (A) (A) (A) (A)
                 (A) (A) (A) (A) (A) (A) (A) (A) (A) (A) (A) (A)
                 (A) (A) (A) (A) (A)
       Virtual   (A) (A) (A) (A) (A) (A) (A) (A) (A) (A) (A) (A)
                 (A) (A) (A) (A) (A) (A) (A) (A) (A) (A) (A) (A)
                 (A) (A) (A) (A) (A) (A) (A) (A) (A) (A) (A) (A)
                 (A) (A) (A) (A) (A) (A) (A) (A) (A) (A) (A) (A)
                 (A) (A) (A) (A) (A) (A) (A) (A) (A) (A) (A) (A)
                 (A) (A) (A) (A) (A) (A) (A) (A) (A) (A) (A) (A)
                 (A) (A) (A) (A) (A) (A) (A) (A) (A) (A) (A) (A)
                 (A) (A) (A) (A) (A) (A) (A) (A) (A) (A) (A) (A)
                 (A) (A) (A) (A) (A) (A) (A) (A) (A) (A) (A) (A)
                 (A) (A) (A) (A) (A) (A) (A) (A) (A) (A) (A) (A)
                 (A) (A) (A) (A) (A) (A) (A) (A) (A) (A) (A) (A)
                 (A) (A) (A) (A) (A) (A) (A) (A) (A) (A) (A) (A)
                 (A) (A) (A) (A) (A) (A) (A) (A) (A) (A) (A) (A)
                 (A) (A) (A) (A) (A) (A) (A) (A) (A) (A) (A) (A)
                 (A) (A) (A) (A) (A) (A) (A) (A) (A) (A) (A) (A)
                 (A) (A) (A) (A) (A) (A) (A) (A) (A) (A) (A) (A)
                 (A) (A) (A) (A) (A) (A) (A) (A) (A) (A) (A) (A)
                 (A) (A) (A) (A) (A) (A) (A) (A) (A) (A) (A) (A)
                 (A) (A) (A) (A) (A) (A) (A) (A) (A) (A) (A) (A)
                 (A) (A) (A) (A) (A) (A) (A) (A) (A) (A) (A) (A)
                 (A) (A) (A) (A) (A) (A) (A) (A) (A) (A) (A) (A)
                 (A) (A) (A) (A) (A) (A) (A) (A) (A) (A) (A) (A)
                 (A) (A) (A) (A) (A) (A) (A) (A) (A) (A) (A) (A)
                 (A) (A) (A) (A) (A) (A) (A) (A) (A) (A) (A) (A)
                 (A) (A) (A) (A) (A) (A) (A) (A) (A) (A) (A) (A)
                 (A) (A) (A) (A) (A) (A) (A) (A) (A) (A) (A) (A)
                 (A) (A) (A) (A) (A) (A) (A) (A) (A) (A) (A) (A)
                 (A) (A) (A) (A) (A) (A) (A) (A) (A) (A) (A) (A)
                 (A) (A) (A) (A) (A) (A) (A) (A) (A) (A) (A) (A)
                 (A) (A) (A) (A) (A) (A) (A) (A) (A) (A) (A) (A)
                 (A) (A) (A) (A) (A) (A) (A) (A) (A) (A) (A) (A)
                 (A) (A) (A) (A) (A) (A) (A) (A) (A) (A) (A) (A)
                 (A) (A) (A) (A) (A) (A) (A) (A) (A) (A) (A) (A)
                 (A) (A) (A) (A) (A) (A) (A) (A) (A) (A) (A) (A)
                 (A) (A) (A) (A) (A) (A) (A) (A) (A) (A) (A) (A)
                 (A) (A) (A) (A) (A) (A) (A) (A) (A) (A) (A) (A)
                 (A) (A) (A) (A) (A) (A) (A)
 The electronic state is 1-A.
 Alpha  occ. eigenvalues --  -66.22037 -66.21905 -66.21463 -66.20253 -19.17271
 Alpha  occ. eigenvalues --  -19.17073 -19.16378 -19.16344 -19.16206 -19.15995
 Alpha  occ. eigenvalues --  -19.15828 -19.15779 -19.15724 -19.15665 -19.15619
 Alpha  occ. eigenvalues --  -19.15509 -19.15166 -19.14701 -19.14644 -19.14377
 Alpha  occ. eigenvalues --  -19.14217 -19.14166 -19.14072 -19.13966 -19.13343
 Alpha  occ. eigenvalues --  -19.13241 -19.12567 -19.12143 -19.11641  -5.36136
 Alpha  occ. eigenvalues --   -5.36022  -5.35660  -5.34459  -3.72099  -3.72077
 Alpha  occ. eigenvalues --   -3.72052  -3.72043  -3.71984  -3.71903  -3.71719
 Alpha  occ. eigenvalues --   -3.71577  -3.71503  -3.70457  -3.70403  -3.70336
 Alpha  occ. eigenvalues --   -2.08205  -2.06857  -2.06723  -2.05077  -1.29256
 Alpha  occ. eigenvalues --   -1.28861  -1.28458  -1.27909  -1.27667  -1.27598
 Alpha  occ. eigenvalues --   -1.27091  -1.27019  -1.26678  -1.25715  -1.25476
 Alpha  occ. eigenvalues --   -1.25114  -1.05354  -1.04424  -1.03129  -1.02030
 Alpha  occ. eigenvalues --   -1.01484  -1.01250  -1.01031  -0.99792  -0.99525
 Alpha  occ. eigenvalues --   -0.98885  -0.98623  -0.98312  -0.97994  -0.97409
 Alpha  occ. eigenvalues --   -0.96590  -0.96375  -0.95383  -0.94924  -0.94854
 Alpha  occ. eigenvalues --   -0.93886  -0.93671  -0.92091  -0.91019  -0.89473
 Alpha  occ. eigenvalues --   -0.88398  -0.61669  -0.59652  -0.58890  -0.55927
 Alpha  occ. eigenvalues --   -0.54525  -0.53717  -0.52435  -0.52142  -0.51542
 Alpha  occ. eigenvalues --   -0.51317  -0.51083  -0.50996  -0.50914  -0.50216
 Alpha  occ. eigenvalues --   -0.50018  -0.49082  -0.48765  -0.47740  -0.46758
 Alpha  occ. eigenvalues --   -0.45497  -0.45349  -0.44763  -0.42699  -0.42150
 Alpha  occ. eigenvalues --   -0.41558  -0.41396  -0.40569  -0.40284  -0.40259
 Alpha  occ. eigenvalues --   -0.39713  -0.39527  -0.39216  -0.38896  -0.38385
 Alpha  occ. eigenvalues --   -0.37822  -0.37554  -0.37466  -0.37314  -0.36790
 Alpha  occ. eigenvalues --   -0.36678  -0.36101  -0.35929  -0.35789  -0.35594
 Alpha  occ. eigenvalues --   -0.35373  -0.35266  -0.35141  -0.35055  -0.34934
 Alpha  occ. eigenvalues --   -0.34643  -0.34287  -0.34233  -0.34195  -0.33924
 Alpha  occ. eigenvalues --   -0.33669  -0.33479  -0.33377  -0.33166  -0.33022
 Alpha  occ. eigenvalues --   -0.32809  -0.32501  -0.32488  -0.32198  -0.32006
 Alpha  occ. eigenvalues --   -0.31738  -0.31697  -0.31404  -0.31107  -0.30982
 Alpha  occ. eigenvalues --   -0.30787  -0.30716  -0.30131  -0.29495  -0.29132
 Alpha  occ. eigenvalues --   -0.28658
 Alpha virt. eigenvalues --   -0.05114  -0.04791  -0.04388  -0.03324  -0.02839
 Alpha virt. eigenvalues --   -0.02602  -0.01813  -0.01509  -0.01262  -0.01166
 Alpha virt. eigenvalues --   -0.00685  -0.00496  -0.00256   0.00053   0.00578
 Alpha virt. eigenvalues --    0.00756   0.01010   0.01370   0.01557   0.01937
 Alpha virt. eigenvalues --    0.02456   0.02571   0.02918   0.03102   0.03185
 Alpha virt. eigenvalues --    0.03896   0.04047   0.04306   0.05044   0.05448
 Alpha virt. eigenvalues --    0.05706   0.05906   0.06261   0.06762   0.07210
 Alpha virt. eigenvalues --    0.08111   0.08330   0.08712   0.09525   0.10330
 Alpha virt. eigenvalues --    0.10551   0.11178   0.12178   0.12545   0.12884
 Alpha virt. eigenvalues --    0.13460   0.13864   0.14596   0.15029   0.15315
 Alpha virt. eigenvalues --    0.15858   0.16278   0.16756   0.16824   0.16983
 Alpha virt. eigenvalues --    0.17571   0.18150   0.18174   0.18248   0.18883
 Alpha virt. eigenvalues --    0.19054   0.19455   0.19604   0.20407   0.20909
 Alpha virt. eigenvalues --    0.21240   0.21266   0.21633   0.22203   0.22296
 Alpha virt. eigenvalues --    0.22619   0.22702   0.22995   0.23551   0.24281
 Alpha virt. eigenvalues --    0.24365   0.24488   0.24949   0.25302   0.25787
 Alpha virt. eigenvalues --    0.26165   0.26809   0.27107   0.27441   0.27667
 Alpha virt. eigenvalues --    0.28318   0.28510   0.29623   0.30025   0.30336
 Alpha virt. eigenvalues --    0.30794   0.31150   0.31566   0.32090   0.33032
 Alpha virt. eigenvalues --    0.33332   0.33950   0.34196   0.34757   0.35243
 Alpha virt. eigenvalues --    0.36389   0.36791   0.37127   0.38088   0.38278
 Alpha virt. eigenvalues --    0.38654   0.39636   0.40871   0.41415   0.41859
 Alpha virt. eigenvalues --    0.42414   0.44539   0.45151   0.46296   0.47101
 Alpha virt. eigenvalues --    0.49333   0.50264   0.52333   0.56062   0.56414
 Alpha virt. eigenvalues --    0.58188   0.59482   0.60319   0.64315   0.66709
 Alpha virt. eigenvalues --    0.68045   0.76626   0.76728   0.78485   0.79741
 Alpha virt. eigenvalues --    0.80166   0.81065   0.81262   0.81892   0.83263
 Alpha virt. eigenvalues --    0.83691   0.83899   0.84859   0.86017   0.86744
 Alpha virt. eigenvalues --    0.87046   0.87784   0.88901   0.89741   0.90461
 Alpha virt. eigenvalues --    0.90859   0.91640   0.92044   0.92474   0.93140
 Alpha virt. eigenvalues --    0.93317   0.93857   0.94397   0.94981   0.95689
 Alpha virt. eigenvalues --    0.96201   0.96725   0.96802   0.97391   0.97644
 Alpha virt. eigenvalues --    0.97665   0.98308   0.98533   0.98697   0.99130
 Alpha virt. eigenvalues --    0.99432   1.00107   1.00635   1.00965   1.01449
 Alpha virt. eigenvalues --    1.02296   1.03033   1.03218   1.03543   1.03912
 Alpha virt. eigenvalues --    1.04680   1.05538   1.05753   1.06303   1.06942
 Alpha virt. eigenvalues --    1.07311   1.07662   1.08176   1.08850   1.09203
 Alpha virt. eigenvalues --    1.09315   1.09437   1.10621   1.10814   1.11152
 Alpha virt. eigenvalues --    1.12120   1.13134   1.13356   1.13858   1.14405
 Alpha virt. eigenvalues --    1.14764   1.15945   1.16183   1.16839   1.17216
 Alpha virt. eigenvalues --    1.17638   1.18278   1.18663   1.18943   1.19158
 Alpha virt. eigenvalues --    1.20144   1.20439   1.20790   1.21323   1.21952
 Alpha virt. eigenvalues --    1.22651   1.22829   1.24439   1.24493   1.24558
 Alpha virt. eigenvalues --    1.25693   1.26592   1.27171   1.27563   1.27846
 Alpha virt. eigenvalues --    1.29333   1.29810   1.31018   1.31945   1.32497
 Alpha virt. eigenvalues --    1.33434   1.34514   1.35352   1.37512   1.38578
 Alpha virt. eigenvalues --    1.42307   1.43573   1.44990   1.45630   1.47233
 Alpha virt. eigenvalues --    1.48028   1.48697   1.49494   1.50467   1.51175
 Alpha virt. eigenvalues --    1.51681   1.52068   1.53612   1.53988   1.54492
 Alpha virt. eigenvalues --    1.55326   1.55406   1.56084   1.56351   1.56579
 Alpha virt. eigenvalues --    1.56846   1.57440   1.57652   1.58129   1.58238
 Alpha virt. eigenvalues --    1.58720   1.59033   1.59350   1.60104   1.60339
 Alpha virt. eigenvalues --    1.61167   1.62253   1.62445   1.62464   1.62881
 Alpha virt. eigenvalues --    1.62926   1.63802   1.64104   1.64527   1.64840
 Alpha virt. eigenvalues --    1.65436   1.65770   1.66317   1.66873   1.67038
 Alpha virt. eigenvalues --    1.67877   1.68247   1.68970   1.70543   1.70956
 Alpha virt. eigenvalues --    1.71403   1.71846   1.72006   1.72425   1.72648
 Alpha virt. eigenvalues --    1.73397   1.73665   1.74263   1.74649   1.75312
 Alpha virt. eigenvalues --    1.75458   1.76426   1.76866   1.77510   1.77944
 Alpha virt. eigenvalues --    1.78234   1.78479   1.78672   1.79132   1.79418
 Alpha virt. eigenvalues --    1.79881   1.80544   1.80686   1.81171   1.81523
 Alpha virt. eigenvalues --    1.81791   1.82180   1.82722   1.82951   1.83157
 Alpha virt. eigenvalues --    1.83654   1.83828   1.84162   1.85339   1.85463
 Alpha virt. eigenvalues --    1.85944   1.86344   1.86557   1.86902   1.86988
 Alpha virt. eigenvalues --    1.87281   1.87557   1.88438   1.88922   1.89590
 Alpha virt. eigenvalues --    1.90343   1.91157   1.91237   1.91614   1.92717
 Alpha virt. eigenvalues --    1.92938   1.93606   1.94478   1.95428   1.96966
 Alpha virt. eigenvalues --    1.97991   1.98953   1.99654   2.00643   2.01832
 Alpha virt. eigenvalues --    2.04496   2.05238   2.07935   2.10010   2.11713
 Alpha virt. eigenvalues --    2.14942   2.19068   2.32846   2.33894   2.34223
 Alpha virt. eigenvalues --    2.34532   2.35118   2.36055   2.36369   2.36761
 Alpha virt. eigenvalues --    2.37124   2.37981   2.38263   2.39725   2.40133
 Alpha virt. eigenvalues --    2.40207   2.40663   2.41185   2.42329   2.44538
 Alpha virt. eigenvalues --    2.45650   2.46327   2.48376   2.49976   2.52787
 Alpha virt. eigenvalues --    2.55489   2.56442   2.58487   2.58935   2.59720
 Alpha virt. eigenvalues --    2.60198   2.60892   2.61104   2.61749   2.62008
 Alpha virt. eigenvalues --    2.62094   2.62439   2.62536   2.62839   2.62980
 Alpha virt. eigenvalues --    2.63054   2.63224   2.63609   2.63758   2.64282
 Alpha virt. eigenvalues --    2.64567   2.64686   2.65560   2.65617   2.65739
 Alpha virt. eigenvalues --    2.65949   2.66758   2.67466   2.68531   2.69336
 Alpha virt. eigenvalues --    2.69752   2.70593   2.70679   2.73112   2.74413
 Alpha virt. eigenvalues --    2.74616   2.74891   2.76656   2.76697   2.77333
 Alpha virt. eigenvalues --    2.77818   2.78539   2.82343   2.83165   2.85007
 Alpha virt. eigenvalues --    2.86739   2.91210   3.40473   3.40771   3.41040
 Alpha virt. eigenvalues --    3.41371   3.41886   3.43468   3.43998   3.45010
 Alpha virt. eigenvalues --    3.46090   3.46543   3.47007   3.47807   3.48803
 Alpha virt. eigenvalues --    3.49483   3.52488   3.54418   3.55143   3.55500
 Alpha virt. eigenvalues --    4.75554   6.29369   6.76155   7.81007
          Condensed to atoms (all electrons):
 Mulliken charges:
               1
     1  Si   1.307504
     2  O   -0.665821
     3  O   -0.648740
     4  O   -0.648035
     5  O   -0.749105
     6  Zr   1.587299
     7  Si   1.137883
     8  Si   1.166196
     9  Si   1.137818
    10  O   -0.819407
    11  Zr   1.498863
    12  O   -0.867422
    13  Zr   1.589319
    14  O   -0.827893
    15  Zr   1.550208
    16  O   -0.627409
    17  O   -0.573221
    18  O   -0.670166
    19  O   -0.626687
    20  O   -0.609990
    21  O   -0.644713
    22  O   -0.578641
    23  O   -0.651248
    24  O   -0.619110
    25  H    0.354902
    26  H    0.335208
    27  H    0.368151
    28  H    0.371847
    29  H    0.366784
    30  H    0.338046
    31  H    0.337317
    32  H    0.383069
    33  H    0.344116
    34  O   -0.695675
    35  H    0.332555
    36  O   -0.706175
    37  H    0.365598
    38  O   -0.748627
    39  H    0.331549
    40  O   -0.762438
    41  H    0.371132
    42  O   -0.693579
    43  H    0.333880
    44  O   -0.698903
    45  H    0.335308
    46  O   -0.764185
    47  H    0.380955
    48  O   -0.743031
    49  H    0.340419
    50  O   -0.692212
    51  H    0.366507
 Sum of Mulliken charges =  -0.00000
 Mulliken charges with hydrogens summed into heavy atoms:
               1
     1  Si   1.307504
     2  O   -0.665821
     3  O   -0.648740
     4  O   -0.648035
     5  O   -0.749105
     6  Zr   1.587299
     7  Si   1.137883
     8  Si   1.166196
     9  Si   1.137818
    10  O   -0.819407
    11  Zr   1.498863
    12  O   -0.867422
    13  Zr   1.589319
    14  O   -0.827893
    15  Zr   1.550208
    16  O   -0.289363
    17  O   -0.235905
    18  O   -0.303382
    19  O   -0.282571
    20  O   -0.238144
    21  O   -0.261643
    22  O   -0.243433
    23  O   -0.296345
    24  O   -0.250959
    34  O   -0.363120
    36  O   -0.340577
    38  O   -0.417078
    40  O   -0.391306
    42  O   -0.359699
    44  O   -0.363595
    46  O   -0.383231
    48  O   -0.402612
    50  O   -0.325705
 Electronic spatial extent (au):  <R**2>=          24512.7808
 Charge=             -0.0000 electrons
 Dipole moment (field-independent basis, Debye):
    X=              2.1505    Y=              4.4001    Z=              0.8789  Tot=              4.9758
 Quadrupole moment (field-independent basis, Debye-Ang):
   XX=           -291.3367   YY=           -258.4994   ZZ=           -261.4244
   XY=              3.8323   XZ=              7.4786   YZ=             -8.6209
 Traceless Quadrupole moment (field-independent basis, Debye-Ang):
   XX=            -20.9165   YY=             11.9208   ZZ=              8.9958
   XY=              3.8323   XZ=              7.4786   YZ=             -8.6209
 Octapole moment (field-independent basis, Debye-Ang**2):
  XXX=            316.3153  YYY=             94.5174  ZZZ=            -60.3130  XYY=            147.6759
  XXY=             75.2212  XXZ=            -25.8749  XZZ=            130.2581  YZZ=              6.2343
  YYZ=            -10.4473  XYZ=             60.2075
 Hexadecapole moment (field-independent basis, Debye-Ang**3):
 XXXX=         -22018.2651 YYYY=          -5448.0224 ZZZZ=          -4982.2427 XXXY=            176.5713
 XXXZ=            142.5762 YYYX=             23.8279 YYYZ=             -0.9413 ZZZX=             -6.2714
 ZZZY=            -76.1882 XXYY=          -4504.7164 XXZZ=          -3742.0131 YYZZ=          -1714.0227
 XXYZ=           -496.4615 YYXZ=           -170.7350 ZZXY=            181.7999
 N-N= 5.702303490385D+03 E-N=-1.900525991307D+04  KE= 3.091319070057D+03
 1\1\GINC-GRA731\FOpt\RB3LYP\Gen\H18O25Si4Zr4\SARASHS\24-Jun-2020\0\\#n
  B3LYP/GEN PSEUDO=READ Opt(modredundant)\\Title\\0,1\Si,-2.7846995745,
 0.6707599852,-0.6117902624\O,-2.6988822009,0.0135281734,0.8948773135\O
 ,-3.8491873155,1.9341838538,-0.589872666\O,-3.3218182602,-0.4807192543
 ,-1.6447687933\O,-1.2892070959,1.1901356856,-0.9727616634\Zr,0.4543115
 636,0.6762005618,-0.0851857064\Si,-3.2333133995,-0.4151606167,2.379008
 1834\Si,-5.4859655734,2.0316565544,-0.4129071879\Si,-4.414956025,-1.73
 07347495,-1.6217515762\O,1.1182290315,-1.0244839104,-0.706203137\Zr,2.
 6897658313,-2.3158446008,-0.6100143656\O,0.4678511658,0.3923949434,1.9
 264346323\Zr,1.6046655929,-0.7441359279,3.0666225239\O,1.8630631068,2.
 0115425398,-0.393878407\Zr,3.7186701367,2.4946812668,0.1292053494\O,-6
 .2771630375,1.7085805416,-1.8301600763\O,-5.8415384392,3.5405930755,0.
 1141696982\O,-6.0214873079,0.8735185032,0.6410753797\O,-3.6655460491,-
 2.0148050713,2.1871779195\O,-4.4789950828,0.4790364922,2.9320111582\O,
 -1.9480250263,-0.2643865831,3.4026855908\O,-4.4749107411,-2.3866035917
 ,-3.1221693455\O,-5.9237175485,-1.1066607428,-1.2904119141\O,-4.039736
 517,-2.8480171765,-0.5031884405\H,-6.2364025954,-0.4398956365,-1.92383
 51363\H,-3.630420269,-2.6588732695,-3.4974805825\H,-3.8577408651,-2.58
 94842237,0.4192765832\H,-5.1835964413,0.644777849,2.2721682061\H,-6.18
 80700837,0.0218355535,0.1832623991\H,-6.1717270967,2.3517282466,-2.540
 0424145\H,-5.1150379111,4.020243208,0.5268816907\H,-1.210674781,0.1831
 876304,2.9434402092\H,-4.2527759568,-2.391253018,2.8523130665\O,2.9800
 773214,-2.8628177893,-2.4775551446\H,3.6465199664,-2.645168948,-3.1365
 274554\O,4.2826609318,-1.2733210611,-0.2066099301\H,4.5250037219,-0.56
 36154387,0.4213061074\O,2.4318592438,-4.1440344381,0.2348986416\H,2.47
 92553431,-4.9781718294,-0.2449698556\O,4.3168874618,1.0378787397,1.343
 6645714\H,4.1296831906,0.8829422758,2.2932583589\O,4.8852719644,2.5393
 432941,-1.4391711886\H,5.3360675656,3.101368262,-2.073776955\O,3.66204
 34264,4.197768364,1.0731967106\H,3.2139213925,4.9812260544,1.397453182
 1\O,2.2556278799,-2.2032287787,1.858634129\H,2.2224900927,-3.180912405
 2,1.8465364099\O,3.1619809309,0.3128441455,3.7541813802\H,3.4370163532
 ,0.5807413648,4.6377480208\O,0.4663654311,-1.3862406375,4.5022086835\H
 ,-0.5011634514,-1.2830074661,4.5401361052\\Version=ES64L-G16RevB.01\St
 ate=1-A\HF=-3237.5670624\RMSD=8.752e-09\RMSF=3.041e-04\Dipole=0.792400
 6,1.7160126,0.5095751\Quadrupole=-16.5365112,9.4164111,7.1201001,3.242
 0369,3.1892104,-5.9647517\PG=C01 [X(H18O25Si4Zr4)]\\@


 EDUCATION DOESN'T COST 
           ... IT PAYS!

 -- POSTMARK, UNIV. OF MISSISSIPPI, DEC 78
 Job cpu time:       0 days 22 hours 15 minutes 21.3 seconds.
 Elapsed time:       0 days  1 hours 23 minutes 58.0 seconds.
 File lengths (MBytes):  RWF=    218 Int=      0 D2E=      0 Chk=     28 Scr=      1
 Normal termination of Gaussian 16 at Wed Jun 24 15:34:26 2020.
