 Entering Gaussian System, Link 0=g16
 Initial command:
 /opt/software/gaussian/g16.b01/l1.exe "/localscratch/sarashs.33454206.0/Gau-17562.inp" -scrdir="/localscratch/sarashs.33454206.0/"
 Entering Link 1 = /opt/software/gaussian/g16.b01/l1.exe PID=     17563.
  
 Copyright (c) 1988-2017, Gaussian, Inc.  All Rights Reserved.
  
 This is part of the Gaussian(R) 16 program.  It is based on
 the Gaussian(R) 09 system (copyright 2009, Gaussian, Inc.),
 the Gaussian(R) 03 system (copyright 2003, Gaussian, Inc.),
 the Gaussian(R) 98 system (copyright 1998, Gaussian, Inc.),
 the Gaussian(R) 94 system (copyright 1995, Gaussian, Inc.),
 the Gaussian 92(TM) system (copyright 1992, Gaussian, Inc.),
 the Gaussian 90(TM) system (copyright 1990, Gaussian, Inc.),
 the Gaussian 88(TM) system (copyright 1988, Gaussian, Inc.),
 the Gaussian 86(TM) system (copyright 1986, Carnegie Mellon
 University), and the Gaussian 82(TM) system (copyright 1983,
 Carnegie Mellon University). Gaussian is a federally registered
 trademark of Gaussian, Inc.
  
 This software contains proprietary and confidential information,
 including trade secrets, belonging to Gaussian, Inc.
  
 This software is provided under written license and may be
 used, copied, transmitted, or stored only in accord with that
 written license.
  
 The following legend is applicable only to US Government
 contracts under FAR:
  
                    RESTRICTED RIGHTS LEGEND
  
 Use, reproduction and disclosure by the US Government is
 subject to restrictions as set forth in subparagraphs (a)
 and (c) of the Commercial Computer Software - Restricted
 Rights clause in FAR 52.227-19.
  
 Gaussian, Inc.
 340 Quinnipiac St., Bldg. 40, Wallingford CT 06492
  
  
 ---------------------------------------------------------------
 Warning -- This program may not be used in any manner that
 competes with the business of Gaussian, Inc. or will provide
 assistance to any competitor of Gaussian, Inc.  The licensee
 of this program is prohibited from giving any competitor of
 Gaussian, Inc. access to this program.  By using this program,
 the user acknowledges that Gaussian, Inc. is engaged in the
 business of creating and licensing software in the field of
 computational chemistry and represents and warrants to the
 licensee that it is not a competitor of Gaussian, Inc. and that
 it will not use this program in any manner prohibited above.
 ---------------------------------------------------------------
  

 Cite this work as:
 Gaussian 16, Revision B.01,
 M. J. Frisch, G. W. Trucks, H. B. Schlegel, G. E. Scuseria, 
 M. A. Robb, J. R. Cheeseman, G. Scalmani, V. Barone, 
 G. A. Petersson, H. Nakatsuji, X. Li, M. Caricato, A. V. Marenich, 
 J. Bloino, B. G. Janesko, R. Gomperts, B. Mennucci, H. P. Hratchian, 
 J. V. Ortiz, A. F. Izmaylov, J. L. Sonnenberg, D. Williams-Young, 
 F. Ding, F. Lipparini, F. Egidi, J. Goings, B. Peng, A. Petrone, 
 T. Henderson, D. Ranasinghe, V. G. Zakrzewski, J. Gao, N. Rega, 
 G. Zheng, W. Liang, M. Hada, M. Ehara, K. Toyota, R. Fukuda, 
 J. Hasegawa, M. Ishida, T. Nakajima, Y. Honda, O. Kitao, H. Nakai, 
 T. Vreven, K. Throssell, J. A. Montgomery, Jr., J. E. Peralta, 
 F. Ogliaro, M. J. Bearpark, J. J. Heyd, E. N. Brothers, K. N. Kudin, 
 V. N. Staroverov, T. A. Keith, R. Kobayashi, J. Normand, 
 K. Raghavachari, A. P. Rendell, J. C. Burant, S. S. Iyengar, 
 J. Tomasi, M. Cossi, J. M. Millam, M. Klene, C. Adamo, R. Cammi, 
 J. W. Ochterski, R. L. Martin, K. Morokuma, O. Farkas, 
 J. B. Foresman, and D. J. Fox, Gaussian, Inc., Wallingford CT, 2016.
 
 ******************************************
 Gaussian 16:  ES64L-G16RevB.01 20-Dec-2017
                24-Jun-2020 
 ******************************************
 %NProcShared=16
 Will use up to   16 processors via shared memory.
 ------------------------------------------
 #n B3LYP/GEN PSEUDO=READ Opt(modredundant)
 ------------------------------------------
 1/18=120,19=15,26=3,38=1/1,3;
 2/9=110,12=2,17=6,18=5,40=1/2;
 3/5=7,11=2,16=1,17=8,25=1,30=1,71=1,74=-5/1,2,3;
 4//1;
 5/5=2,38=5/2;
 6/7=2,8=2,9=2,10=2,28=1/1;
 7//1,2,3,16;
 1/18=20,19=15,26=3/3(2);
 2/9=110/2;
 99//99;
 2/9=110/2;
 3/5=7,6=1,11=2,16=1,17=8,25=1,30=1,71=1,74=-5,82=7/1,2,3;
 4/5=5,16=3,69=1/1;
 5/5=2,38=5/2;
 7//1,2,3,16;
 1/18=20,19=15,26=3/3(-5);
 2/9=110/2;
 6/7=2,8=2,9=2,10=2,19=2,28=1/1;
 99/9=1/99;
 -----
 Title
 -----
 Symbolic Z-matrix:
 Charge =  0 Multiplicity = 1
 Si                   -2.76356   0.50373  -0.80236 
 O                    -2.64408  -0.06281   0.73154 
 O                    -3.71347   1.8573   -0.78988 
 O                    -3.46982  -0.65647  -1.71915 
 O                    -1.26704   0.87374  -1.30905 
 Zr                    0.59181   0.75391  -2.06733 
 Si                   -2.95182  -0.40071   2.29443 
 Si                   -5.29329   2.11319  -0.39088 
 Si                   -4.65193  -1.79724  -1.46558 
 O                     0.83004  -0.72233  -3.28809 
 Zr                    2.15843  -1.71349  -4.46959 
 O                     2.01059   0.36556  -0.67709 
 Zr                    3.71064  -0.62691  -0.79099 
 O                     1.20271   2.39921  -2.96156 
 Zr                    2.85321   3.19756  -3.72608 
 O                    -6.30259   1.76732  -1.65717 
 O                    -5.44687   3.68028   0.05984 
 O                    -5.76721   1.08545   0.81639 
 O                    -3.50601  -1.97299   2.26095 
 O                    -4.03994   0.60192   2.98173 
 O                    -1.51274  -0.31185   3.10045 
 O                    -4.9739   -2.52135  -2.90029 
 O                    -6.04082  -1.02047  -0.97357 
 O                    -4.21989  -2.88703  -0.34024 
 H                    -6.38886  -0.36717  -1.60281 
 H                    -4.21233  -2.86813  -3.37752 
 H                    -3.92943  -2.60256   0.54609 
 H                    -4.78107   0.84544   2.39047 
 H                    -6.04405   0.21773   0.45311 
 H                    -6.24075   2.34318  -2.42744 
 H                    -4.62851   4.12226   0.31086 
 H                    -0.83615   0.10482   2.53314 
 H                    -4.05643  -2.25627   2.99954 
 O                     1.16134  -2.06008  -6.13024 
 H                     1.19505  -1.67779  -7.0126 
 O                     3.51766  -0.43897  -5.02721 
 H                     3.98778   0.31305  -4.61387 
 O                     2.70047  -3.61617  -4.009 
 H                     2.49467  -4.38699  -4.54912 
 O                     4.2436    1.79057  -3.519 
 H                     4.78755   1.53003  -2.74601 
 O                     2.60888   3.56803  -5.63036 
 H                     2.45754   4.24548  -6.29365 
 O                     3.31038   4.78591  -2.69453 
 H                     3.14777   5.43979  -2.01206 
 O                     3.48191  -1.87817  -2.33497 
 H                     3.53671  -2.83975  -2.5065 
 O                     5.19739   0.66025  -1.17537 
 H                     5.9703    0.93891  -0.67223 
 O                     3.93396  -1.50621   0.9247 
 H                     3.28724  -1.49273   1.65325 
 
 The following ModRedundant input section has been read:
 A       1       5       6 F                                                   
 

 GradGradGradGradGradGradGradGradGradGradGradGradGradGradGradGradGradGrad
 Berny optimization.
 Initialization pass.
                           ----------------------------
                           !    Initial Parameters    !
                           ! (Angstroms and Degrees)  !
 --------------------------                            --------------------------
 ! Name  Definition              Value          Derivative Info.                !
 --------------------------------------------------------------------------------
 ! R1    R(1,2)                  1.6395         estimate D2E/DX2                !
 ! R2    R(1,3)                  1.6537         estimate D2E/DX2                !
 ! R3    R(1,4)                  1.6387         estimate D2E/DX2                !
 ! R4    R(1,5)                  1.6227         estimate D2E/DX2                !
 ! R5    R(2,7)                  1.6283         estimate D2E/DX2                !
 ! R6    R(3,8)                  1.6494         estimate D2E/DX2                !
 ! R7    R(4,9)                  1.6622         estimate D2E/DX2                !
 ! R8    R(5,6)                  2.0111         estimate D2E/DX2                !
 ! R9    R(6,10)                 1.9304         estimate D2E/DX2                !
 ! R10   R(6,12)                 2.024          estimate D2E/DX2                !
 ! R11   R(6,14)                 1.9697         estimate D2E/DX2                !
 ! R12   R(7,19)                 1.6674         estimate D2E/DX2                !
 ! R13   R(7,20)                 1.6315         estimate D2E/DX2                !
 ! R14   R(7,21)                 1.6518         estimate D2E/DX2                !
 ! R15   R(8,16)                 1.6558         estimate D2E/DX2                !
 ! R16   R(8,17)                 1.6378         estimate D2E/DX2                !
 ! R17   R(8,18)                 1.6548         estimate D2E/DX2                !
 ! R18   R(9,22)                 1.639          estimate D2E/DX2                !
 ! R19   R(9,23)                 1.6657         estimate D2E/DX2                !
 ! R20   R(9,24)                 1.625          estimate D2E/DX2                !
 ! R21   R(10,11)                2.0354         estimate D2E/DX2                !
 ! R22   R(11,34)                1.9678         estimate D2E/DX2                !
 ! R23   R(11,36)                1.945          estimate D2E/DX2                !
 ! R24   R(11,38)                2.0313         estimate D2E/DX2                !
 ! R25   R(12,13)                1.9718         estimate D2E/DX2                !
 ! R26   R(13,46)                2.0005         estimate D2E/DX2                !
 ! R27   R(13,48)                2.0037         estimate D2E/DX2                !
 ! R28   R(13,50)                1.9408         estimate D2E/DX2                !
 ! R29   R(14,15)                1.9865         estimate D2E/DX2                !
 ! R30   R(15,40)                1.9889         estimate D2E/DX2                !
 ! R31   R(15,42)                1.9553         estimate D2E/DX2                !
 ! R32   R(15,44)                1.9483         estimate D2E/DX2                !
 ! R33   R(16,30)                0.9637         estimate D2E/DX2                !
 ! R34   R(17,31)                0.9634         estimate D2E/DX2                !
 ! R35   R(18,29)                0.9806         estimate D2E/DX2                !
 ! R36   R(19,33)                0.9637         estimate D2E/DX2                !
 ! R37   R(20,28)                0.9789         estimate D2E/DX2                !
 ! R38   R(21,32)                0.9763         estimate D2E/DX2                !
 ! R39   R(22,26)                0.9633         estimate D2E/DX2                !
 ! R40   R(23,25)                0.9715         estimate D2E/DX2                !
 ! R41   R(24,27)                0.9751         estimate D2E/DX2                !
 ! R42   R(34,35)                0.9622         estimate D2E/DX2                !
 ! R43   R(36,37)                0.9785         estimate D2E/DX2                !
 ! R44   R(38,39)                0.9635         estimate D2E/DX2                !
 ! R45   R(40,41)                0.9804         estimate D2E/DX2                !
 ! R46   R(42,43)                0.9601         estimate D2E/DX2                !
 ! R47   R(44,45)                0.959          estimate D2E/DX2                !
 ! R48   R(46,47)                0.9783         estimate D2E/DX2                !
 ! R49   R(48,49)                0.9634         estimate D2E/DX2                !
 ! R50   R(50,51)                0.9743         estimate D2E/DX2                !
 ! A1    A(2,1,3)              108.5202         estimate D2E/DX2                !
 ! A2    A(2,1,4)              108.0696         estimate D2E/DX2                !
 ! A3    A(2,1,5)              107.6808         estimate D2E/DX2                !
 ! A4    A(3,1,4)              109.6434         estimate D2E/DX2                !
 ! A5    A(3,1,5)              110.2104         estimate D2E/DX2                !
 ! A6    A(4,1,5)              112.595          estimate D2E/DX2                !
 ! A7    A(1,2,7)              162.9195         estimate D2E/DX2                !
 ! A8    A(1,3,8)              132.766          estimate D2E/DX2                !
 ! A9    A(1,4,9)              134.9946         estimate D2E/DX2                !
 ! A10   A(1,5,6)              163.0464         Frozen                          !
 ! A11   A(5,6,10)             113.4578         estimate D2E/DX2                !
 ! A12   A(5,6,12)             113.6003         estimate D2E/DX2                !
 ! A13   A(5,6,14)             114.083          estimate D2E/DX2                !
 ! A14   A(10,6,12)            101.6036         estimate D2E/DX2                !
 ! A15   A(10,6,14)            108.2649         estimate D2E/DX2                !
 ! A16   A(12,6,14)            104.7558         estimate D2E/DX2                !
 ! A17   A(2,7,19)             103.84           estimate D2E/DX2                !
 ! A18   A(2,7,20)             113.7575         estimate D2E/DX2                !
 ! A19   A(2,7,21)             107.0096         estimate D2E/DX2                !
 ! A20   A(19,7,20)            111.4863         estimate D2E/DX2                !
 ! A21   A(19,7,21)            110.4922         estimate D2E/DX2                !
 ! A22   A(20,7,21)            110.0253         estimate D2E/DX2                !
 ! A23   A(3,8,16)             111.4953         estimate D2E/DX2                !
 ! A24   A(3,8,17)             107.7477         estimate D2E/DX2                !
 ! A25   A(3,8,18)             110.7593         estimate D2E/DX2                !
 ! A26   A(16,8,17)            110.6802         estimate D2E/DX2                !
 ! A27   A(16,8,18)            104.6923         estimate D2E/DX2                !
 ! A28   A(17,8,18)            111.5071         estimate D2E/DX2                !
 ! A29   A(4,9,22)             108.021          estimate D2E/DX2                !
 ! A30   A(4,9,23)             108.5421         estimate D2E/DX2                !
 ! A31   A(4,9,24)             112.1363         estimate D2E/DX2                !
 ! A32   A(22,9,23)            107.505          estimate D2E/DX2                !
 ! A33   A(22,9,24)            111.2311         estimate D2E/DX2                !
 ! A34   A(23,9,24)            109.2613         estimate D2E/DX2                !
 ! A35   A(6,10,11)            145.0877         estimate D2E/DX2                !
 ! A36   A(10,11,34)           104.1786         estimate D2E/DX2                !
 ! A37   A(10,11,36)           107.6628         estimate D2E/DX2                !
 ! A38   A(10,11,38)           119.9111         estimate D2E/DX2                !
 ! A39   A(34,11,36)           103.1547         estimate D2E/DX2                !
 ! A40   A(34,11,38)            99.2992         estimate D2E/DX2                !
 ! A41   A(36,11,38)           119.4938         estimate D2E/DX2                !
 ! A42   A(6,12,13)            131.3961         estimate D2E/DX2                !
 ! A43   A(12,13,46)           105.119          estimate D2E/DX2                !
 ! A44   A(12,13,48)           109.1155         estimate D2E/DX2                !
 ! A45   A(12,13,50)           106.0324         estimate D2E/DX2                !
 ! A46   A(46,13,48)           109.7904         estimate D2E/DX2                !
 ! A47   A(46,13,50)           114.3348         estimate D2E/DX2                !
 ! A48   A(48,13,50)           112.0394         estimate D2E/DX2                !
 ! A49   A(6,14,15)            140.1849         estimate D2E/DX2                !
 ! A50   A(14,15,40)           104.8604         estimate D2E/DX2                !
 ! A51   A(14,15,42)           110.3128         estimate D2E/DX2                !
 ! A52   A(14,15,44)           108.5926         estimate D2E/DX2                !
 ! A53   A(40,15,42)           108.8318         estimate D2E/DX2                !
 ! A54   A(40,15,44)           110.9503         estimate D2E/DX2                !
 ! A55   A(42,15,44)           112.9854         estimate D2E/DX2                !
 ! A56   A(8,16,30)            116.5711         estimate D2E/DX2                !
 ! A57   A(8,17,31)            115.5324         estimate D2E/DX2                !
 ! A58   A(8,18,29)            111.1097         estimate D2E/DX2                !
 ! A59   A(7,19,33)            116.8474         estimate D2E/DX2                !
 ! A60   A(7,20,28)            113.7913         estimate D2E/DX2                !
 ! A61   A(7,21,32)            110.0697         estimate D2E/DX2                !
 ! A62   A(9,22,26)            115.9371         estimate D2E/DX2                !
 ! A63   A(9,23,25)            114.8968         estimate D2E/DX2                !
 ! A64   A(9,24,27)            120.8639         estimate D2E/DX2                !
 ! A65   A(11,34,35)           133.3275         estimate D2E/DX2                !
 ! A66   A(11,36,37)           135.9144         estimate D2E/DX2                !
 ! A67   A(11,38,39)           124.4222         estimate D2E/DX2                !
 ! A68   A(15,40,41)           131.1416         estimate D2E/DX2                !
 ! A69   A(15,42,43)           145.7115         estimate D2E/DX2                !
 ! A70   A(15,44,45)           153.2293         estimate D2E/DX2                !
 ! A71   A(13,46,47)           138.0493         estimate D2E/DX2                !
 ! A72   A(13,48,49)           132.9125         estimate D2E/DX2                !
 ! A73   A(13,50,51)           125.3387         estimate D2E/DX2                !
 ! D1    D(3,1,2,7)             26.3443         estimate D2E/DX2                !
 ! D2    D(4,1,2,7)            -92.4856         estimate D2E/DX2                !
 ! D3    D(5,1,2,7)            145.6313         estimate D2E/DX2                !
 ! D4    D(2,1,3,8)            -62.7632         estimate D2E/DX2                !
 ! D5    D(4,1,3,8)             55.0697         estimate D2E/DX2                !
 ! D6    D(5,1,3,8)            179.5501         estimate D2E/DX2                !
 ! D7    D(2,1,4,9)             35.4977         estimate D2E/DX2                !
 ! D8    D(3,1,4,9)            -82.6158         estimate D2E/DX2                !
 ! D9    D(5,1,4,9)            154.3011         estimate D2E/DX2                !
 ! D10   D(2,1,5,6)             84.6897         estimate D2E/DX2                !
 ! D11   D(3,1,5,6)           -157.1064         estimate D2E/DX2                !
 ! D12   D(4,1,5,6)            -34.3408         estimate D2E/DX2                !
 ! D13   D(1,2,7,19)           100.9483         estimate D2E/DX2                !
 ! D14   D(1,2,7,20)           -20.4241         estimate D2E/DX2                !
 ! D15   D(1,2,7,21)          -142.1534         estimate D2E/DX2                !
 ! D16   D(1,3,8,16)           -83.6614         estimate D2E/DX2                !
 ! D17   D(1,3,8,17)           154.7            estimate D2E/DX2                !
 ! D18   D(1,3,8,18)            32.4929         estimate D2E/DX2                !
 ! D19   D(1,4,9,22)           173.7129         estimate D2E/DX2                !
 ! D20   D(1,4,9,23)            57.4339         estimate D2E/DX2                !
 ! D21   D(1,4,9,24)           -63.3679         estimate D2E/DX2                !
 ! D22   D(1,5,6,10)            24.2618         estimate D2E/DX2                !
 ! D23   D(1,5,6,12)           -91.1333         estimate D2E/DX2                !
 ! D24   D(1,5,6,14)           148.8849         estimate D2E/DX2                !
 ! D25   D(5,6,10,11)         -177.8679         estimate D2E/DX2                !
 ! D26   D(12,6,10,11)         -55.549          estimate D2E/DX2                !
 ! D27   D(14,6,10,11)          54.424          estimate D2E/DX2                !
 ! D28   D(5,6,12,13)          148.1501         estimate D2E/DX2                !
 ! D29   D(10,6,12,13)          25.9294         estimate D2E/DX2                !
 ! D30   D(14,6,12,13)         -86.7108         estimate D2E/DX2                !
 ! D31   D(5,6,14,15)          169.9963         estimate D2E/DX2                !
 ! D32   D(10,6,14,15)         -62.6541         estimate D2E/DX2                !
 ! D33   D(12,6,14,15)          45.162          estimate D2E/DX2                !
 ! D34   D(2,7,19,33)         -156.8425         estimate D2E/DX2                !
 ! D35   D(20,7,19,33)         -33.9627         estimate D2E/DX2                !
 ! D36   D(21,7,19,33)          88.7198         estimate D2E/DX2                !
 ! D37   D(2,7,20,28)           39.0047         estimate D2E/DX2                !
 ! D38   D(19,7,20,28)         -78.0052         estimate D2E/DX2                !
 ! D39   D(21,7,20,28)         159.0451         estimate D2E/DX2                !
 ! D40   D(2,7,21,32)           12.2859         estimate D2E/DX2                !
 ! D41   D(19,7,21,32)         124.7052         estimate D2E/DX2                !
 ! D42   D(20,7,21,32)        -111.7631         estimate D2E/DX2                !
 ! D43   D(3,8,16,30)          -66.936          estimate D2E/DX2                !
 ! D44   D(17,8,16,30)          52.9866         estimate D2E/DX2                !
 ! D45   D(18,8,16,30)         173.2574         estimate D2E/DX2                !
 ! D46   D(3,8,17,31)          -19.3558         estimate D2E/DX2                !
 ! D47   D(16,8,17,31)        -141.4996         estimate D2E/DX2                !
 ! D48   D(18,8,17,31)         102.3883         estimate D2E/DX2                !
 ! D49   D(3,8,18,29)          -84.4645         estimate D2E/DX2                !
 ! D50   D(16,8,18,29)          35.8337         estimate D2E/DX2                !
 ! D51   D(17,8,18,29)         155.5519         estimate D2E/DX2                !
 ! D52   D(4,9,22,26)           52.0376         estimate D2E/DX2                !
 ! D53   D(23,9,22,26)         168.99           estimate D2E/DX2                !
 ! D54   D(24,9,22,26)         -71.4318         estimate D2E/DX2                !
 ! D55   D(4,9,23,25)           59.2735         estimate D2E/DX2                !
 ! D56   D(22,9,23,25)         -57.3378         estimate D2E/DX2                !
 ! D57   D(24,9,23,25)        -178.1643         estimate D2E/DX2                !
 ! D58   D(4,9,24,27)           54.0597         estimate D2E/DX2                !
 ! D59   D(22,9,24,27)         175.1468         estimate D2E/DX2                !
 ! D60   D(23,9,24,27)         -66.3256         estimate D2E/DX2                !
 ! D61   D(6,10,11,34)        -136.8766         estimate D2E/DX2                !
 ! D62   D(6,10,11,36)         -27.8024         estimate D2E/DX2                !
 ! D63   D(6,10,11,38)         113.3915         estimate D2E/DX2                !
 ! D64   D(10,11,34,35)        105.9339         estimate D2E/DX2                !
 ! D65   D(36,11,34,35)         -6.4262         estimate D2E/DX2                !
 ! D66   D(38,11,34,35)       -129.8343         estimate D2E/DX2                !
 ! D67   D(10,11,36,37)         37.7968         estimate D2E/DX2                !
 ! D68   D(34,11,36,37)        147.5769         estimate D2E/DX2                !
 ! D69   D(38,11,36,37)       -103.5879         estimate D2E/DX2                !
 ! D70   D(10,11,38,39)        114.2539         estimate D2E/DX2                !
 ! D71   D(34,11,38,39)          1.8863         estimate D2E/DX2                !
 ! D72   D(36,11,38,39)       -109.0644         estimate D2E/DX2                !
 ! D73   D(6,12,13,46)         -23.771          estimate D2E/DX2                !
 ! D74   D(6,12,13,48)          93.928          estimate D2E/DX2                !
 ! D75   D(6,12,13,50)        -145.2209         estimate D2E/DX2                !
 ! D76   D(12,13,46,47)       -123.8169         estimate D2E/DX2                !
 ! D77   D(48,13,46,47)        118.9426         estimate D2E/DX2                !
 ! D78   D(50,13,46,47)         -7.9574         estimate D2E/DX2                !
 ! D79   D(12,13,48,49)        115.0457         estimate D2E/DX2                !
 ! D80   D(46,13,48,49)       -130.2406         estimate D2E/DX2                !
 ! D81   D(50,13,48,49)         -2.061          estimate D2E/DX2                !
 ! D82   D(12,13,50,51)          3.8981         estimate D2E/DX2                !
 ! D83   D(46,13,50,51)       -111.4299         estimate D2E/DX2                !
 ! D84   D(48,13,50,51)        122.8397         estimate D2E/DX2                !
 ! D85   D(6,14,15,40)           2.4017         estimate D2E/DX2                !
 ! D86   D(6,14,15,42)         119.4233         estimate D2E/DX2                !
 ! D87   D(6,14,15,44)        -116.2549         estimate D2E/DX2                !
 ! D88   D(14,15,40,41)        -80.671          estimate D2E/DX2                !
 ! D89   D(42,15,40,41)        161.297          estimate D2E/DX2                !
 ! D90   D(44,15,40,41)         36.3817         estimate D2E/DX2                !
 ! D91   D(14,15,42,43)        104.4325         estimate D2E/DX2                !
 ! D92   D(40,15,42,43)       -141.0367         estimate D2E/DX2                !
 ! D93   D(44,15,42,43)        -17.3243         estimate D2E/DX2                !
 ! D94   D(14,15,44,45)         -4.8198         estimate D2E/DX2                !
 ! D95   D(40,15,44,45)       -119.562          estimate D2E/DX2                !
 ! D96   D(42,15,44,45)        117.9004         estimate D2E/DX2                !
 --------------------------------------------------------------------------------
 Trust Radius=3.00D-01 FncErr=1.00D-07 GrdErr=1.00D-06 EigMax=2.50D+02 EigMin=1.00D-04
 Number of steps in this run=    229 maximum allowed number of steps=    306.
 GradGradGradGradGradGradGradGradGradGradGradGradGradGradGradGradGradGrad

 Stoichiometry    H18O25Si4Zr4
 Framework group  C1[X(H18O25Si4Zr4)]
 Deg. of freedom   147
 Full point group                 C1      NOp   1
 Largest Abelian subgroup         C1      NOp   1
 Largest concise Abelian subgroup C1      NOp   1
                         Standard orientation:                         
 ---------------------------------------------------------------------
 Center     Atomic      Atomic             Coordinates (Angstroms)
 Number     Number       Type             X           Y           Z
 ---------------------------------------------------------------------
      1         14           0       -2.888838    0.425181   -0.136111
      2          8           0       -3.409830   -0.355740    1.208070
      3          8           0       -3.705723    1.857546   -0.261266
      4          8           0       -3.226228   -0.516631   -1.434005
      5          8           0       -1.299097    0.699860    0.038503
      6         40           0        0.700856    0.488078    0.041057
      7         14           0       -4.324229   -0.870021    2.453419
      8         14           0       -5.301751    2.222896   -0.460579
      9         14           0       -4.461533   -1.549125   -1.847547
     10          8           0        1.336279   -0.823771   -1.224480
     11         40           0        2.978054   -1.779233   -1.955662
     12          8           0        1.436814   -0.235860    1.781976
     13         40           0        2.998087   -1.378487    2.162725
     14          8           0        1.687191    2.166026   -0.261418
     15         40           0        3.538951    2.881514   -0.190223
     16          8           0       -5.743290    2.163205   -2.055346
     17          8           0       -5.551448    3.720769    0.153044
     18          8           0       -6.258707    1.095660    0.282339
     19          8           0       -4.889015   -2.354919    1.947054
     20          8           0       -5.549881    0.138925    2.829530
     21          8           0       -3.317906   -1.046062    3.751433
     22          8           0       -4.222518   -2.031339   -3.395686
     23          8           0       -5.896068   -0.703853   -1.801879
     24          8           0       -4.557486   -2.822599   -0.842685
     25          1           0       -5.938175    0.062813   -2.397132
     26          1           0       -3.350520   -2.388444   -3.595907
     27          1           0       -4.628316   -2.694834    0.121436
     28          1           0       -5.985815    0.538629    2.049555
     29          1           0       -6.407645    0.320344   -0.299256
     30          1           0       -5.356990    2.829341   -2.634820
     31          1           0       -4.880036    4.034593    0.768504
     32          1           0       -2.454616   -0.629910    3.564948
     33          1           0       -5.698255   -2.676603    2.359820
     34          8           0        2.703392   -1.786873   -3.904142
     35          1           0        3.099585   -1.293014   -4.628694
     36          8           0        4.501854   -0.592178   -1.728101
     37          1           0        4.803290    0.041773   -1.046456
     38          8           0        3.209613   -3.773845   -1.648997
     39          1           0        3.199967   -4.437046   -2.347795
     40          8           0        4.671016    1.319591    0.294042
     41          1           0        4.853495    0.899186    1.160781
     42          8           0        4.082946    3.533389   -1.951574
     43          1           0        4.235859    4.307584   -2.498415
     44          8           0        3.621348    4.255745    1.188420
     45          1           0        3.231539    4.823451    1.855896
     46          8           0        3.342532   -2.374795    0.462557
     47          1           0        3.418086   -3.304106    0.166358
     48          8           0        4.571069   -0.216295    2.598603
     49          1           0        5.094017   -0.093040    3.398306
     50          8           0        2.486802   -2.503388    3.659327
     51          1           0        1.606256   -2.521194    4.075903
 ---------------------------------------------------------------------
 Rotational constants (GHZ):           0.0825868           0.0345666           0.0332254
 General basis read from cards:  (5D, 7F)
 ======================================================================================================
                                       Pseudopotential Parameters
 ======================================================================================================
  Center     Atomic      Valence      Angular      Power
  Number     Number     Electrons     Momentum     of R      Exponent        Coefficient   SO-Coeffient
 ======================================================================================================
    1         14
                                   No pseudopotential on this center.
    2          8
                                   No pseudopotential on this center.
    3          8
                                   No pseudopotential on this center.
    4          8
                                   No pseudopotential on this center.
    5          8
                                   No pseudopotential on this center.
    6         40           12
                                      F and up 
                                                     0      645.9321873       -0.04258430    0.00000000
                                                     1      134.7547401      -20.22224090    0.00000000
                                                     2       42.3074619     -101.86951720    0.00000000
                                                     2       12.0003227      -41.61957840    0.00000000
                                                     2        4.1260454       -4.69861600    0.00000000
                                      S - F
                                                     0      117.6251862        2.79105590    0.00000000
                                                     1       22.9646089       41.94894590    0.00000000
                                                     2        4.5225298       67.72718660    0.00000000
                                      P - F
                                                     0       47.1953145        4.99111440    0.00000000
                                                     1       48.0356033       20.71931720    0.00000000
                                                     2       19.4541456      195.58677580    0.00000000
                                                     2        4.0512875       48.28771760    0.00000000
                                      D - F
                                                     0       79.9073983        3.00492260    0.00000000
                                                     1       45.8263798       25.93779890    0.00000000
                                                     2       26.9903522      125.12449340    0.00000000
                                                     2        9.6835718       70.76340220    0.00000000
                                                     2        2.7995666       15.04928220    0.00000000
    7         14
                                   No pseudopotential on this center.
    8         14
                                   No pseudopotential on this center.
    9         14
                                   No pseudopotential on this center.
   10          8
                                   No pseudopotential on this center.
   11         40           12
                                      F and up 
                                                     0      645.9321873       -0.04258430    0.00000000
                                                     1      134.7547401      -20.22224090    0.00000000
                                                     2       42.3074619     -101.86951720    0.00000000
                                                     2       12.0003227      -41.61957840    0.00000000
                                                     2        4.1260454       -4.69861600    0.00000000
                                      S - F
                                                     0      117.6251862        2.79105590    0.00000000
                                                     1       22.9646089       41.94894590    0.00000000
                                                     2        4.5225298       67.72718660    0.00000000
                                      P - F
                                                     0       47.1953145        4.99111440    0.00000000
                                                     1       48.0356033       20.71931720    0.00000000
                                                     2       19.4541456      195.58677580    0.00000000
                                                     2        4.0512875       48.28771760    0.00000000
                                      D - F
                                                     0       79.9073983        3.00492260    0.00000000
                                                     1       45.8263798       25.93779890    0.00000000
                                                     2       26.9903522      125.12449340    0.00000000
                                                     2        9.6835718       70.76340220    0.00000000
                                                     2        2.7995666       15.04928220    0.00000000
   12          8
                                   No pseudopotential on this center.
   13         40           12
                                      F and up 
                                                     0      645.9321873       -0.04258430    0.00000000
                                                     1      134.7547401      -20.22224090    0.00000000
                                                     2       42.3074619     -101.86951720    0.00000000
                                                     2       12.0003227      -41.61957840    0.00000000
                                                     2        4.1260454       -4.69861600    0.00000000
                                      S - F
                                                     0      117.6251862        2.79105590    0.00000000
                                                     1       22.9646089       41.94894590    0.00000000
                                                     2        4.5225298       67.72718660    0.00000000
                                      P - F
                                                     0       47.1953145        4.99111440    0.00000000
                                                     1       48.0356033       20.71931720    0.00000000
                                                     2       19.4541456      195.58677580    0.00000000
                                                     2        4.0512875       48.28771760    0.00000000
                                      D - F
                                                     0       79.9073983        3.00492260    0.00000000
                                                     1       45.8263798       25.93779890    0.00000000
                                                     2       26.9903522      125.12449340    0.00000000
                                                     2        9.6835718       70.76340220    0.00000000
                                                     2        2.7995666       15.04928220    0.00000000
   14          8
                                   No pseudopotential on this center.
   15         40           12
                                      F and up 
                                                     0      645.9321873       -0.04258430    0.00000000
                                                     1      134.7547401      -20.22224090    0.00000000
                                                     2       42.3074619     -101.86951720    0.00000000
                                                     2       12.0003227      -41.61957840    0.00000000
                                                     2        4.1260454       -4.69861600    0.00000000
                                      S - F
                                                     0      117.6251862        2.79105590    0.00000000
                                                     1       22.9646089       41.94894590    0.00000000
                                                     2        4.5225298       67.72718660    0.00000000
                                      P - F
                                                     0       47.1953145        4.99111440    0.00000000
                                                     1       48.0356033       20.71931720    0.00000000
                                                     2       19.4541456      195.58677580    0.00000000
                                                     2        4.0512875       48.28771760    0.00000000
                                      D - F
                                                     0       79.9073983        3.00492260    0.00000000
                                                     1       45.8263798       25.93779890    0.00000000
                                                     2       26.9903522      125.12449340    0.00000000
                                                     2        9.6835718       70.76340220    0.00000000
                                                     2        2.7995666       15.04928220    0.00000000
   16          8
                                   No pseudopotential on this center.
   17          8
                                   No pseudopotential on this center.
   18          8
                                   No pseudopotential on this center.
   19          8
                                   No pseudopotential on this center.
   20          8
                                   No pseudopotential on this center.
   21          8
                                   No pseudopotential on this center.
   22          8
                                   No pseudopotential on this center.
   23          8
                                   No pseudopotential on this center.
   24          8
                                   No pseudopotential on this center.
   25          1
                                   No pseudopotential on this center.
   26          1
                                   No pseudopotential on this center.
   27          1
                                   No pseudopotential on this center.
   28          1
                                   No pseudopotential on this center.
   29          1
                                   No pseudopotential on this center.
   30          1
                                   No pseudopotential on this center.
   31          1
                                   No pseudopotential on this center.
   32          1
                                   No pseudopotential on this center.
   33          1
                                   No pseudopotential on this center.
   34          8
                                   No pseudopotential on this center.
   35          1
                                   No pseudopotential on this center.
   36          8
                                   No pseudopotential on this center.
   37          1
                                   No pseudopotential on this center.
   38          8
                                   No pseudopotential on this center.
   39          1
                                   No pseudopotential on this center.
   40          8
                                   No pseudopotential on this center.
   41          1
                                   No pseudopotential on this center.
   42          8
                                   No pseudopotential on this center.
   43          1
                                   No pseudopotential on this center.
   44          8
                                   No pseudopotential on this center.
   45          1
                                   No pseudopotential on this center.
   46          8
                                   No pseudopotential on this center.
   47          1
                                   No pseudopotential on this center.
   48          8
                                   No pseudopotential on this center.
   49          1
                                   No pseudopotential on this center.
   50          8
                                   No pseudopotential on this center.
   51          1
                                   No pseudopotential on this center.
 ======================================================================================================
 There are   637 symmetry adapted cartesian basis functions of A   symmetry.
 There are   600 symmetry adapted basis functions of A   symmetry.
   600 basis functions,  1230 primitive gaussians,   637 cartesian basis functions
   161 alpha electrons      161 beta electrons
       nuclear repulsion energy      5505.7423009652 Hartrees.
 NAtoms=   51 NActive=   51 NUniq=   51 SFac= 1.00D+00 NAtFMM=   60 NAOKFM=F Big=F
 Integral buffers will be    131072 words long.
 Raffenetti 2 integral format.
 Two-electron integral symmetry is turned on.
 One-electron integrals computed using PRISM.
   1 Symmetry operations used in ECPInt.
 ECPInt:  NShTT=   21321 NPrTT=  126439 LenC2=   14856 LenP2D=   49511.
 LDataN:  DoStor=T MaxTD1= 5 Len=  102
 Number of processors reduced to  12 by ecpmxn.
 NBasis=   600 RedAO= T EigKep=  2.61D-03  NBF=   600
 NBsUse=   600 1.00D-06 EigRej= -1.00D+00 NBFU=   600
 Defaulting to unpruned grid for atomic number  40.
 Defaulting to unpruned grid for atomic number  40.
 Defaulting to unpruned grid for atomic number  40.
 ExpMin= 2.43D-02 ExpMax= 1.61D+04 ExpMxC= 2.43D+03 IAcc=3 IRadAn=         5 AccDes= 0.00D+00
 Harris functional with IExCor=  402 and IRadAn=       5 diagonalized for initial guess.
 HarFok:  IExCor=  402 AccDes= 0.00D+00 IRadAn=         5 IDoV= 1 UseB2=F ITyADJ=14
 ICtDFT=  3500011 ScaDFX=  1.000000  1.000000  1.000000  1.000000
 Defaulting to unpruned grid for atomic number  40.
 FoFCou: FMM=F IPFlag=           0 FMFlag=      100000 FMFlg1=           0
         NFxFlg=           0 DoJE=T BraDBF=F KetDBF=T FulRan=T
         wScrn=  0.000000 ICntrl=       500 IOpCl=  0 I1Cent=   200000004 NGrid=           0
         NMat0=    1 NMatS0=      1 NMatT0=    0 NMatD0=    1 NMtDS0=    0 NMtDT0=    0
 Petite list used in FoFCou.
 Requested convergence on RMS density matrix=1.00D-08 within 128 cycles.
 Requested convergence on MAX density matrix=1.00D-06.
 Requested convergence on             energy=1.00D-06.
 No special actions if energy rises.
 Defaulting to unpruned grid for atomic number  40.
 Defaulting to unpruned grid for atomic number  40.
 Defaulting to unpruned grid for atomic number  40.
 Defaulting to unpruned grid for atomic number  40.
 Defaulting to unpruned grid for atomic number  40.
 Defaulting to unpruned grid for atomic number  40.
 Defaulting to unpruned grid for atomic number  40.
 Defaulting to unpruned grid for atomic number  40.
 Defaulting to unpruned grid for atomic number  40.
 Defaulting to unpruned grid for atomic number  40.
 Defaulting to unpruned grid for atomic number  40.
 Defaulting to unpruned grid for atomic number  40.
 Defaulting to unpruned grid for atomic number  40.
 Defaulting to unpruned grid for atomic number  40.
 Defaulting to unpruned grid for atomic number  40.
 Defaulting to unpruned grid for atomic number  40.
 SCF Done:  E(RB3LYP) =  -3237.55495036     A.U. after   17 cycles
            NFock= 17  Conv=0.33D-08     -V/T= 2.0473

 **********************************************************************

            Population analysis using the SCF Density.

 **********************************************************************

 Orbital symmetries:
       Occupied  (A) (A) (A) (A) (A) (A) (A) (A) (A) (A) (A) (A)
                 (A) (A) (A) (A) (A) (A) (A) (A) (A) (A) (A) (A)
                 (A) (A) (A) (A) (A) (A) (A) (A) (A) (A) (A) (A)
                 (A) (A) (A) (A) (A) (A) (A) (A) (A) (A) (A) (A)
                 (A) (A) (A) (A) (A) (A) (A) (A) (A) (A) (A) (A)
                 (A) (A) (A) (A) (A) (A) (A) (A) (A) (A) (A) (A)
                 (A) (A) (A) (A) (A) (A) (A) (A) (A) (A) (A) (A)
                 (A) (A) (A) (A) (A) (A) (A) (A) (A) (A) (A) (A)
                 (A) (A) (A) (A) (A) (A) (A) (A) (A) (A) (A) (A)
                 (A) (A) (A) (A) (A) (A) (A) (A) (A) (A) (A) (A)
                 (A) (A) (A) (A) (A) (A) (A) (A) (A) (A) (A) (A)
                 (A) (A) (A) (A) (A) (A) (A) (A) (A) (A) (A) (A)
                 (A) (A) (A) (A) (A) (A) (A) (A) (A) (A) (A) (A)
                 (A) (A) (A) (A) (A)
       Virtual   (A) (A) (A) (A) (A) (A) (A) (A) (A) (A) (A) (A)
                 (A) (A) (A) (A) (A) (A) (A) (A) (A) (A) (A) (A)
                 (A) (A) (A) (A) (A) (A) (A) (A) (A) (A) (A) (A)
                 (A) (A) (A) (A) (A) (A) (A) (A) (A) (A) (A) (A)
                 (A) (A) (A) (A) (A) (A) (A) (A) (A) (A) (A) (A)
                 (A) (A) (A) (A) (A) (A) (A) (A) (A) (A) (A) (A)
                 (A) (A) (A) (A) (A) (A) (A) (A) (A) (A) (A) (A)
                 (A) (A) (A) (A) (A) (A) (A) (A) (A) (A) (A) (A)
                 (A) (A) (A) (A) (A) (A) (A) (A) (A) (A) (A) (A)
                 (A) (A) (A) (A) (A) (A) (A) (A) (A) (A) (A) (A)
                 (A) (A) (A) (A) (A) (A) (A) (A) (A) (A) (A) (A)
                 (A) (A) (A) (A) (A) (A) (A) (A) (A) (A) (A) (A)
                 (A) (A) (A) (A) (A) (A) (A) (A) (A) (A) (A) (A)
                 (A) (A) (A) (A) (A) (A) (A) (A) (A) (A) (A) (A)
                 (A) (A) (A) (A) (A) (A) (A) (A) (A) (A) (A) (A)
                 (A) (A) (A) (A) (A) (A) (A) (A) (A) (A) (A) (A)
                 (A) (A) (A) (A) (A) (A) (A) (A) (A) (A) (A) (A)
                 (A) (A) (A) (A) (A) (A) (A) (A) (A) (A) (A) (A)
                 (A) (A) (A) (A) (A) (A) (A) (A) (A) (A) (A) (A)
                 (A) (A) (A) (A) (A) (A) (A) (A) (A) (A) (A) (A)
                 (A) (A) (A) (A) (A) (A) (A) (A) (A) (A) (A) (A)
                 (A) (A) (A) (A) (A) (A) (A) (A) (A) (A) (A) (A)
                 (A) (A) (A) (A) (A) (A) (A) (A) (A) (A) (A) (A)
                 (A) (A) (A) (A) (A) (A) (A) (A) (A) (A) (A) (A)
                 (A) (A) (A) (A) (A) (A) (A) (A) (A) (A) (A) (A)
                 (A) (A) (A) (A) (A) (A) (A) (A) (A) (A) (A) (A)
                 (A) (A) (A) (A) (A) (A) (A) (A) (A) (A) (A) (A)
                 (A) (A) (A) (A) (A) (A) (A) (A) (A) (A) (A) (A)
                 (A) (A) (A) (A) (A) (A) (A) (A) (A) (A) (A) (A)
                 (A) (A) (A) (A) (A) (A) (A) (A) (A) (A) (A) (A)
                 (A) (A) (A) (A) (A) (A) (A) (A) (A) (A) (A) (A)
                 (A) (A) (A) (A) (A) (A) (A) (A) (A) (A) (A) (A)
                 (A) (A) (A) (A) (A) (A) (A) (A) (A) (A) (A) (A)
                 (A) (A) (A) (A) (A) (A) (A) (A) (A) (A) (A) (A)
                 (A) (A) (A) (A) (A) (A) (A) (A) (A) (A) (A) (A)
                 (A) (A) (A) (A) (A) (A) (A) (A) (A) (A) (A) (A)
                 (A) (A) (A) (A) (A) (A) (A)
 The electronic state is 1-A.
 Alpha  occ. eigenvalues --  -66.21734 -66.21516 -66.20268 -66.19844 -19.17159
 Alpha  occ. eigenvalues --  -19.16776 -19.16555 -19.16222 -19.16181 -19.16062
 Alpha  occ. eigenvalues --  -19.15726 -19.15383 -19.15262 -19.15234 -19.15164
 Alpha  occ. eigenvalues --  -19.14450 -19.14376 -19.14296 -19.14216 -19.14191
 Alpha  occ. eigenvalues --  -19.14177 -19.14109 -19.14045 -19.13456 -19.13366
 Alpha  occ. eigenvalues --  -19.12766 -19.12686 -19.12268 -19.11713  -5.35745
 Alpha  occ. eigenvalues --   -5.35648  -5.34484  -5.34051  -3.71708  -3.71687
 Alpha  occ. eigenvalues --   -3.71665  -3.71653  -3.71614  -3.71556  -3.70555
 Alpha  occ. eigenvalues --   -3.70396  -3.70318  -3.70045  -3.69999  -3.69926
 Alpha  occ. eigenvalues --   -2.08450  -2.06802  -2.06760  -2.05169  -1.29582
 Alpha  occ. eigenvalues --   -1.28973  -1.28716  -1.27882  -1.27688  -1.27580
 Alpha  occ. eigenvalues --   -1.27161  -1.26939  -1.26640  -1.25816  -1.25560
 Alpha  occ. eigenvalues --   -1.25209  -1.04861  -1.03489  -1.02658  -1.01451
 Alpha  occ. eigenvalues --   -1.00989  -1.00757  -0.99901  -0.99404  -0.98752
 Alpha  occ. eigenvalues --   -0.98536  -0.98234  -0.97937  -0.97718  -0.97468
 Alpha  occ. eigenvalues --   -0.97422  -0.96694  -0.95496  -0.94995  -0.94697
 Alpha  occ. eigenvalues --   -0.94012  -0.93796  -0.92167  -0.90337  -0.89422
 Alpha  occ. eigenvalues --   -0.88418  -0.61028  -0.59057  -0.58368  -0.55231
 Alpha  occ. eigenvalues --   -0.54005  -0.52801  -0.51888  -0.51615  -0.51557
 Alpha  occ. eigenvalues --   -0.51245  -0.50887  -0.50565  -0.50399  -0.50398
 Alpha  occ. eigenvalues --   -0.50129  -0.48898  -0.48850  -0.47817  -0.46870
 Alpha  occ. eigenvalues --   -0.45744  -0.45627  -0.44933  -0.42439  -0.41350
 Alpha  occ. eigenvalues --   -0.40950  -0.40418  -0.39969  -0.39785  -0.39540
 Alpha  occ. eigenvalues --   -0.39410  -0.38942  -0.38888  -0.38731  -0.38366
 Alpha  occ. eigenvalues --   -0.38077  -0.37408  -0.37019  -0.36674  -0.36426
 Alpha  occ. eigenvalues --   -0.36136  -0.35950  -0.35739  -0.35449  -0.35408
 Alpha  occ. eigenvalues --   -0.35320  -0.35142  -0.34935  -0.34651  -0.34491
 Alpha  occ. eigenvalues --   -0.34366  -0.34254  -0.34139  -0.34045  -0.33728
 Alpha  occ. eigenvalues --   -0.33636  -0.33442  -0.33124  -0.32941  -0.32721
 Alpha  occ. eigenvalues --   -0.32601  -0.32411  -0.32311  -0.32101  -0.31600
 Alpha  occ. eigenvalues --   -0.31470  -0.31205  -0.31133  -0.30933  -0.30812
 Alpha  occ. eigenvalues --   -0.30587  -0.30397  -0.30299  -0.29577  -0.29244
 Alpha  occ. eigenvalues --   -0.28724
 Alpha virt. eigenvalues --   -0.05294  -0.04802  -0.04336  -0.03806  -0.02905
 Alpha virt. eigenvalues --   -0.02749  -0.02134  -0.01767  -0.01432  -0.01321
 Alpha virt. eigenvalues --   -0.00862  -0.00684  -0.00310  -0.00003   0.00265
 Alpha virt. eigenvalues --    0.00614   0.00721   0.00914   0.01381   0.01838
 Alpha virt. eigenvalues --    0.02290   0.02312   0.02475   0.02848   0.02933
 Alpha virt. eigenvalues --    0.03098   0.04035   0.04190   0.04565   0.05011
 Alpha virt. eigenvalues --    0.05621   0.05809   0.06304   0.06658   0.07417
 Alpha virt. eigenvalues --    0.07764   0.08162   0.08577   0.09639   0.09830
 Alpha virt. eigenvalues --    0.10430   0.11165   0.11881   0.12603   0.13262
 Alpha virt. eigenvalues --    0.13816   0.14011   0.14694   0.14783   0.15124
 Alpha virt. eigenvalues --    0.15392   0.16279   0.16379   0.16810   0.17214
 Alpha virt. eigenvalues --    0.17517   0.17727   0.18125   0.18163   0.18383
 Alpha virt. eigenvalues --    0.19486   0.19767   0.19850   0.20097   0.20361
 Alpha virt. eigenvalues --    0.20747   0.21049   0.21625   0.21931   0.22178
 Alpha virt. eigenvalues --    0.22540   0.22680   0.22760   0.23474   0.23684
 Alpha virt. eigenvalues --    0.23944   0.24255   0.24623   0.24706   0.25594
 Alpha virt. eigenvalues --    0.25761   0.26112   0.26660   0.26919   0.27076
 Alpha virt. eigenvalues --    0.27689   0.28152   0.28653   0.29143   0.29234
 Alpha virt. eigenvalues --    0.30150   0.30338   0.30502   0.31147   0.31710
 Alpha virt. eigenvalues --    0.32633   0.33449   0.33532   0.33857   0.35214
 Alpha virt. eigenvalues --    0.35647   0.35909   0.36615   0.37040   0.37577
 Alpha virt. eigenvalues --    0.38185   0.38558   0.39475   0.40975   0.41517
 Alpha virt. eigenvalues --    0.41897   0.43943   0.45704   0.46844   0.47611
 Alpha virt. eigenvalues --    0.47972   0.49377   0.52381   0.55922   0.56992
 Alpha virt. eigenvalues --    0.58854   0.60086   0.60756   0.64280   0.65029
 Alpha virt. eigenvalues --    0.67264   0.76994   0.77370   0.78163   0.79392
 Alpha virt. eigenvalues --    0.80404   0.80508   0.80940   0.81696   0.82405
 Alpha virt. eigenvalues --    0.83125   0.84104   0.84354   0.84739   0.85854
 Alpha virt. eigenvalues --    0.86439   0.87325   0.89141   0.89529   0.90351
 Alpha virt. eigenvalues --    0.90936   0.92165   0.92410   0.92587   0.93093
 Alpha virt. eigenvalues --    0.93183   0.93830   0.94621   0.94811   0.95084
 Alpha virt. eigenvalues --    0.95694   0.96221   0.96677   0.97036   0.97201
 Alpha virt. eigenvalues --    0.97712   0.97894   0.98220   0.98704   0.99249
 Alpha virt. eigenvalues --    0.99573   0.99931   1.00168   1.00577   1.01345
 Alpha virt. eigenvalues --    1.02009   1.02142   1.02327   1.02978   1.03888
 Alpha virt. eigenvalues --    1.04172   1.05076   1.05110   1.05497   1.06593
 Alpha virt. eigenvalues --    1.07041   1.07352   1.07874   1.08253   1.08783
 Alpha virt. eigenvalues --    1.09189   1.09875   1.10228   1.10363   1.10985
 Alpha virt. eigenvalues --    1.11321   1.11985   1.12657   1.12973   1.14230
 Alpha virt. eigenvalues --    1.14336   1.14669   1.15252   1.16314   1.16506
 Alpha virt. eigenvalues --    1.17192   1.18052   1.18295   1.18651   1.18831
 Alpha virt. eigenvalues --    1.19597   1.20157   1.20541   1.20590   1.21438
 Alpha virt. eigenvalues --    1.21962   1.22691   1.23024   1.23726   1.24413
 Alpha virt. eigenvalues --    1.24779   1.25990   1.26896   1.27109   1.27777
 Alpha virt. eigenvalues --    1.28817   1.29221   1.29991   1.30451   1.32090
 Alpha virt. eigenvalues --    1.33195   1.33593   1.34624   1.35518   1.37735
 Alpha virt. eigenvalues --    1.42474   1.42802   1.43161   1.45075   1.46687
 Alpha virt. eigenvalues --    1.48233   1.49092   1.49629   1.50065   1.50926
 Alpha virt. eigenvalues --    1.51716   1.52110   1.52998   1.53606   1.54033
 Alpha virt. eigenvalues --    1.54080   1.55014   1.55410   1.55965   1.56148
 Alpha virt. eigenvalues --    1.57151   1.57446   1.57705   1.57833   1.58114
 Alpha virt. eigenvalues --    1.58468   1.58853   1.59331   1.59405   1.60073
 Alpha virt. eigenvalues --    1.60486   1.61634   1.62002   1.62179   1.62537
 Alpha virt. eigenvalues --    1.63176   1.63676   1.63826   1.64018   1.64735
 Alpha virt. eigenvalues --    1.65463   1.65844   1.65997   1.66628   1.67096
 Alpha virt. eigenvalues --    1.67522   1.68057   1.68715   1.70242   1.70717
 Alpha virt. eigenvalues --    1.71277   1.71707   1.71847   1.72345   1.72895
 Alpha virt. eigenvalues --    1.73109   1.73468   1.73807   1.74758   1.75301
 Alpha virt. eigenvalues --    1.75642   1.76493   1.76988   1.77566   1.77710
 Alpha virt. eigenvalues --    1.78121   1.78347   1.78573   1.78675   1.79096
 Alpha virt. eigenvalues --    1.79466   1.80003   1.80246   1.80714   1.81269
 Alpha virt. eigenvalues --    1.81298   1.81443   1.82220   1.82482   1.82697
 Alpha virt. eigenvalues --    1.83185   1.83641   1.83673   1.84639   1.84901
 Alpha virt. eigenvalues --    1.85461   1.85536   1.86126   1.86423   1.86496
 Alpha virt. eigenvalues --    1.87013   1.87230   1.87313   1.87787   1.88433
 Alpha virt. eigenvalues --    1.89756   1.90019   1.90723   1.90918   1.92356
 Alpha virt. eigenvalues --    1.92836   1.93262   1.94761   1.94986   1.96388
 Alpha virt. eigenvalues --    1.97546   1.97730   1.99270   2.01075   2.01717
 Alpha virt. eigenvalues --    2.04163   2.05934   2.09313   2.09752   2.12361
 Alpha virt. eigenvalues --    2.15361   2.18551   2.32000   2.33107   2.34071
 Alpha virt. eigenvalues --    2.34474   2.34800   2.34987   2.35125   2.35814
 Alpha virt. eigenvalues --    2.36554   2.36631   2.36959   2.38325   2.39579
 Alpha virt. eigenvalues --    2.40228   2.40483   2.41340   2.42799   2.44508
 Alpha virt. eigenvalues --    2.45532   2.46432   2.48171   2.50117   2.52561
 Alpha virt. eigenvalues --    2.56115   2.57056   2.58679   2.58886   2.59626
 Alpha virt. eigenvalues --    2.60108   2.60164   2.60612   2.61360   2.61478
 Alpha virt. eigenvalues --    2.61857   2.61988   2.62314   2.62693   2.62888
 Alpha virt. eigenvalues --    2.63092   2.63105   2.63474   2.63580   2.64124
 Alpha virt. eigenvalues --    2.64239   2.64559   2.65176   2.65431   2.65600
 Alpha virt. eigenvalues --    2.65613   2.65811   2.66079   2.68054   2.68475
 Alpha virt. eigenvalues --    2.69545   2.70011   2.70344   2.71448   2.72715
 Alpha virt. eigenvalues --    2.73967   2.74625   2.75324   2.76411   2.76994
 Alpha virt. eigenvalues --    2.77463   2.77866   2.82163   2.82791   2.85149
 Alpha virt. eigenvalues --    2.87079   2.94192   3.39831   3.40494   3.40818
 Alpha virt. eigenvalues --    3.41251   3.41682   3.42060   3.43306   3.44379
 Alpha virt. eigenvalues --    3.44834   3.45091   3.45944   3.47520   3.47623
 Alpha virt. eigenvalues --    3.49528   3.49774   3.52716   3.54908   3.55507
 Alpha virt. eigenvalues --    4.70060   6.13917   6.49389   7.77238
          Condensed to atoms (all electrons):
 Mulliken charges:
               1
     1  Si   1.282637
     2  O   -0.636534
     3  O   -0.654012
     4  O   -0.656591
     5  O   -0.761467
     6  Zr   1.629988
     7  Si   1.097398
     8  Si   1.154051
     9  Si   1.133145
    10  O   -0.818703
    11  Zr   1.495612
    12  O   -0.816321
    13  Zr   1.595379
    14  O   -0.827395
    15  Zr   1.551666
    16  O   -0.626045
    17  O   -0.574129
    18  O   -0.665255
    19  O   -0.627041
    20  O   -0.613542
    21  O   -0.595958
    22  O   -0.580556
    23  O   -0.652564
    24  O   -0.618581
    25  H    0.354873
    26  H    0.334603
    27  H    0.367110
    28  H    0.368237
    29  H    0.365630
    30  H    0.337689
    31  H    0.336554
    32  H    0.335884
    33  H    0.342490
    34  O   -0.695736
    35  H    0.332472
    36  O   -0.706753
    37  H    0.365638
    38  O   -0.750093
    39  H    0.331134
    40  O   -0.764004
    41  H    0.371375
    42  O   -0.694334
    43  H    0.333782
    44  O   -0.699567
    45  H    0.335197
    46  O   -0.762904
    47  H    0.380100
    48  O   -0.741698
    49  H    0.339677
    50  O   -0.682283
    51  H    0.349745
 Sum of Mulliken charges =  -0.00000
 Mulliken charges with hydrogens summed into heavy atoms:
               1
     1  Si   1.282637
     2  O   -0.636534
     3  O   -0.654012
     4  O   -0.656591
     5  O   -0.761467
     6  Zr   1.629988
     7  Si   1.097398
     8  Si   1.154051
     9  Si   1.133145
    10  O   -0.818703
    11  Zr   1.495612
    12  O   -0.816321
    13  Zr   1.595379
    14  O   -0.827395
    15  Zr   1.551666
    16  O   -0.288356
    17  O   -0.237574
    18  O   -0.299625
    19  O   -0.284551
    20  O   -0.245305
    21  O   -0.260075
    22  O   -0.245953
    23  O   -0.297690
    24  O   -0.251471
    34  O   -0.363265
    36  O   -0.341115
    38  O   -0.418959
    40  O   -0.392628
    42  O   -0.360552
    44  O   -0.364370
    46  O   -0.382804
    48  O   -0.402021
    50  O   -0.332538
 Electronic spatial extent (au):  <R**2>=          27588.3591
 Charge=             -0.0000 electrons
 Dipole moment (field-independent basis, Debye):
    X=              4.5036    Y=              3.8694    Z=              2.3358  Tot=              6.3805
 Quadrupole moment (field-independent basis, Debye-Ang):
   XX=           -302.5213   YY=           -255.5312   ZZ=           -262.9217
   XY=              1.3114   XZ=             14.6843   YZ=             -7.8519
 Traceless Quadrupole moment (field-independent basis, Debye-Ang):
   XX=            -28.8632   YY=             18.1269   ZZ=             10.7364
   XY=              1.3114   XZ=             14.6843   YZ=             -7.8519
 Octapole moment (field-independent basis, Debye-Ang**2):
  XXX=            395.5824  YYY=            113.6439  ZZZ=            -48.4742  XYY=            147.2367
  XXY=             -2.6932  XXZ=             60.5045  XZZ=            197.0647  YZZ=             44.6244
  YYZ=             -9.1142  XYZ=             56.7510
 Hexadecapole moment (field-independent basis, Debye-Ang**3):
 XXXX=         -25350.6236 YYYY=          -5886.0665 ZZZZ=          -5464.2533 XXXY=            512.0059
 XXXZ=            224.8851 YYYX=            178.4018 YYYZ=             57.6644 ZZZX=            244.6080
 ZZZY=            -45.2813 XXYY=          -5061.1065 XXZZ=          -4837.8369 YYZZ=          -1750.9854
 XXYZ=           -448.9664 YYXZ=           -245.3319 ZZXY=             -6.5098
 N-N= 5.505742300965D+03 E-N=-1.861289083194D+04  KE= 3.091257130664D+03
   1 Symmetry operations used in ECPInt.
 ECPInt:  NShTT=   21321 NPrTT=  126439 LenC2=   14856 LenP2D=   49511.
 LDataN:  DoStor=T MaxTD1= 6 Len=  172
 Number of processors reduced to  14 by ecpmxn.
 Calling FoFJK, ICntrl=      2127 FMM=F ISym2X=0 I1Cent= 0 IOpClX= 0 NMat=1 NMatS=1 NMatT=0.
 Defaulting to unpruned grid for atomic number  40.
 Defaulting to unpruned grid for atomic number  40.
 Defaulting to unpruned grid for atomic number  40.
 Defaulting to unpruned grid for atomic number  40.
 Defaulting to unpruned grid for atomic number  40.
 Defaulting to unpruned grid for atomic number  40.
 Defaulting to unpruned grid for atomic number  40.
 Defaulting to unpruned grid for atomic number  40.
 Defaulting to unpruned grid for atomic number  40.
 Defaulting to unpruned grid for atomic number  40.
 Defaulting to unpruned grid for atomic number  40.
 Defaulting to unpruned grid for atomic number  40.
 Defaulting to unpruned grid for atomic number  40.
 Defaulting to unpruned grid for atomic number  40.
 Defaulting to unpruned grid for atomic number  40.
 Defaulting to unpruned grid for atomic number  40.
 ***** Axes restored to original set *****
 -------------------------------------------------------------------
 Center     Atomic                   Forces (Hartrees/Bohr)
 Number     Number              X              Y              Z
 -------------------------------------------------------------------
      1       14           0.004172585   -0.002122200    0.007329678
      2        8          -0.000742894    0.001409700   -0.003587295
      3        8          -0.000037973    0.000493806   -0.000953556
      4        8          -0.000007700    0.000163186   -0.001072741
      5        8           0.002681166    0.000745118   -0.005591452
      6       40          -0.003817722   -0.001212553    0.006191751
      7       14           0.005003734    0.000367345    0.000942091
      8       14           0.000849986   -0.000962913    0.000705429
      9       14           0.000461808    0.000084494    0.000975608
     10        8           0.000574697   -0.000568509   -0.001110685
     11       40          -0.000175676    0.001050326    0.000337563
     12        8           0.004669865   -0.003752302   -0.006260464
     13       40          -0.010265162    0.009985871   -0.005515328
     14        8           0.000854105    0.000893877   -0.000962310
     15       40          -0.000559351   -0.000422568    0.000677890
     16        8          -0.000259044    0.000053413   -0.000369998
     17        8          -0.000125173    0.000348430   -0.000107337
     18        8          -0.000469862    0.000362373   -0.000574039
     19        8          -0.001244421   -0.000504216   -0.000590375
     20        8          -0.001534509    0.000578868   -0.000224239
     21        8           0.004329425    0.004080083   -0.007498404
     22        8          -0.000085070   -0.000042524   -0.000252151
     23        8          -0.000220483    0.000039023   -0.000228168
     24        8          -0.000314678   -0.000191047   -0.000677752
     25        1          -0.000012897   -0.000080585    0.000100828
     26        1           0.000052327    0.000048353   -0.000001118
     27        1           0.000337953    0.000379215    0.000614109
     28        1           0.000537537   -0.000296016    0.000427565
     29        1           0.000152452    0.000057826    0.000069995
     30        1           0.000010594   -0.000037101    0.000093443
     31        1           0.000014169   -0.000164735    0.000103506
     32        1          -0.007365994   -0.004941579    0.008513717
     33        1           0.000410623    0.000248679    0.000073859
     34        8          -0.000219103   -0.000137219   -0.000120783
     35        1           0.000046406    0.000000291    0.000011050
     36        8           0.000012434   -0.000230542   -0.000038873
     37        1          -0.000011904    0.000139203    0.000051778
     38        8          -0.000022326   -0.000333448    0.000218950
     39        1           0.000049897    0.000007596   -0.000028552
     40        8           0.000369025   -0.000127188   -0.000070143
     41        1          -0.000221345    0.000141019   -0.000185104
     42        8          -0.000068386    0.000101165   -0.000278002
     43        1           0.000039528   -0.000024075    0.000025945
     44        8           0.000100771    0.000137416   -0.000005545
     45        1          -0.000045297   -0.000037388    0.000008923
     46        8           0.000031691   -0.000497405    0.000433862
     47        1           0.000031594    0.000053772   -0.000337585
     48        8           0.000350142   -0.000335627    0.000414693
     49        1           0.000009526    0.000188948   -0.000246818
     50        8          -0.006156760   -0.002609789    0.012710851
     51        1           0.007829690   -0.002527864   -0.004144270
 -------------------------------------------------------------------
 Cartesian Forces:  Max     0.012710851 RMS     0.002653410

 GradGradGradGradGradGradGradGradGradGradGradGradGradGradGradGradGradGrad
 Berny optimization.
 FormGI is forming the generalized inverse of G from B-inverse, IUseBI=4.
 Internal  Forces:  Max     0.012160865 RMS     0.001934373
 Search for a local minimum.
 Step number   1 out of a maximum of  229
 All quantities printed in internal units (Hartrees-Bohrs-Radians)
 Mixed Optimization -- RFO/linear search
 Second derivative matrix not updated -- first step.
 ITU=  0
     Eigenvalues ---    0.00230   0.00230   0.00230   0.00230   0.00230
     Eigenvalues ---    0.00230   0.00230   0.00230   0.00230   0.00230
     Eigenvalues ---    0.00230   0.00230   0.00230   0.00230   0.00230
     Eigenvalues ---    0.00230   0.03447   0.03470   0.03516   0.03601
     Eigenvalues ---    0.03614   0.03629   0.03654   0.03686   0.03816
     Eigenvalues ---    0.03823   0.03827   0.03839   0.03923   0.03964
     Eigenvalues ---    0.04008   0.04039   0.06239   0.08354   0.08564
     Eigenvalues ---    0.08974   0.09448   0.10123   0.10678   0.11232
     Eigenvalues ---    0.11368   0.11507   0.11595   0.11636   0.11773
     Eigenvalues ---    0.11825   0.11923   0.12003   0.12146   0.12566
     Eigenvalues ---    0.12661   0.12746   0.12781   0.12915   0.12948
     Eigenvalues ---    0.13420   0.16000   0.16000   0.16000   0.16000
     Eigenvalues ---    0.16000   0.16000   0.16000   0.16000   0.16000
     Eigenvalues ---    0.16000   0.16000   0.16000   0.16000   0.16000
     Eigenvalues ---    0.16000   0.16000   0.16000   0.16000   0.16475
     Eigenvalues ---    0.16653   0.16972   0.17555   0.17903   0.18060
     Eigenvalues ---    0.18629   0.18752   0.19259   0.19512   0.19625
     Eigenvalues ---    0.19663   0.19719   0.19731   0.19849   0.20192
     Eigenvalues ---    0.20247   0.20296   0.20320   0.20376   0.20393
     Eigenvalues ---    0.20422   0.20645   0.20651   0.20806   0.20824
     Eigenvalues ---    0.20868   0.21021   0.21050   0.21076   0.21269
     Eigenvalues ---    0.21906   0.25000   0.25000   0.25000   0.25000
     Eigenvalues ---    0.25000   0.25000   0.40115   0.40361   0.40848
     Eigenvalues ---    0.41777   0.41931   0.42098   0.42374   0.42741
     Eigenvalues ---    0.44274   0.44356   0.44406   0.44546   0.45586
     Eigenvalues ---    0.46106   0.46669   0.47064   0.51271   0.51298
     Eigenvalues ---    0.51607   0.51684   0.51717   0.52103   0.52343
     Eigenvalues ---    0.52513   0.53065   0.54681   0.54684   0.54737
     Eigenvalues ---    0.54743   0.54756   0.54764   0.55002   0.55451
     Eigenvalues ---    0.556791000.000001000.000001000.000001000.00000
     Eigenvalues --- 1000.000001000.000001000.000001000.000001000.00000
     Eigenvalues --- 1000.000001000.000001000.000001000.000001000.00000
     Eigenvalues --- 1000.000001000.000001000.000001000.000001000.00000
     Eigenvalues --- 1000.000001000.000001000.000001000.000001000.00000
     Eigenvalues --- 1000.000001000.000001000.000001000.000001000.00000
     Eigenvalues --- 1000.000001000.000001000.000001000.000001000.00000
     Eigenvalues --- 1000.000001000.000001000.000001000.000001000.00000
     Eigenvalues --- 1000.000001000.000001000.000001000.000001000.00000
     Eigenvalues --- 1000.000001000.000001000.000001000.000001000.00000
     Eigenvalues --- 1000.000001000.000001000.000001000.000001000.00000
     Eigenvalues --- 1000.000001000.000001000.000001000.000001000.00000
     Eigenvalues --- 1000.000001000.000001000.000001000.000001000.00000
     Eigenvalues --- 1000.000001000.000001000.000001000.000001000.00000
     Eigenvalues --- 1000.000001000.000001000.000001000.00000
 RFO step:  Lambda=-3.88708456D-03 EMin= 2.30000000D-03
 Linear search not attempted -- first point.
 Iteration  1 RMS(Cart)=  0.11323814 RMS(Int)=  0.00246213
 Iteration  2 RMS(Cart)=  0.00517025 RMS(Int)=  0.00003549
 Iteration  3 RMS(Cart)=  0.00001062 RMS(Int)=  0.00003521
 Iteration  4 RMS(Cart)=  0.00000000 RMS(Int)=  0.00003521
 Iteration  1 RMS(Cart)=  0.00000000 RMS(Int)=  0.00000000
 Variable       Old X    -DE/DX   Delta X   Delta X   Delta X     New X
                                 (Linear)    (Quad)   (Total)
    R1        3.09828  -0.00219   0.00000  -0.00490  -0.00490   3.09338
    R2        3.12499   0.00004   0.00000   0.00009   0.00009   3.12509
    R3        3.09671  -0.00007   0.00000  -0.00016  -0.00016   3.09655
    R4        3.06649  -0.00228   0.00000  -0.00479  -0.00479   3.06170
    R5        3.07712   0.00165   0.00000   0.00355   0.00355   3.08067
    R6        3.11691  -0.00024   0.00000  -0.00055  -0.00055   3.11636
    R7        3.14118  -0.00024   0.00000  -0.00058  -0.00058   3.14060
    R8        3.80050  -0.00676   0.00000  -0.03766  -0.03766   3.76284
    R9        3.64785   0.00052   0.00000   0.00232   0.00232   3.65017
   R10        3.82478  -0.00457   0.00000  -0.02634  -0.02634   3.79844
   R11        3.72226   0.00105   0.00000   0.00527   0.00527   3.72753
   R12        3.15098   0.00053   0.00000   0.00131   0.00131   3.15229
   R13        3.08301   0.00092   0.00000   0.00201   0.00201   3.08502
   R14        3.12149  -0.00220   0.00000  -0.00514  -0.00514   3.11635
   R15        3.12908   0.00036   0.00000   0.00085   0.00085   3.12993
   R16        3.09506   0.00019   0.00000   0.00041   0.00041   3.09548
   R17        3.12711  -0.00054   0.00000  -0.00127  -0.00127   3.12584
   R18        3.09730   0.00023   0.00000   0.00051   0.00051   3.09781
   R19        3.14766   0.00014   0.00000   0.00034   0.00034   3.14800
   R20        3.07084  -0.00017   0.00000  -0.00035  -0.00035   3.07049
   R21        3.84640  -0.00070   0.00000  -0.00416  -0.00416   3.84224
   R22        3.71852   0.00020   0.00000   0.00102   0.00102   3.71954
   R23        3.67543  -0.00006   0.00000  -0.00029  -0.00029   3.67514
   R24        3.83858   0.00036   0.00000   0.00208   0.00208   3.84067
   R25        3.72623  -0.00938   0.00000  -0.04711  -0.04711   3.67912
   R26        3.78032   0.00020   0.00000   0.00107   0.00107   3.78139
   R27        3.78651   0.00014   0.00000   0.00076   0.00076   3.78727
   R28        3.66755   0.01009   0.00000   0.04661   0.04661   3.71415
   R29        3.75386  -0.00048   0.00000  -0.00250  -0.00250   3.75135
   R30        3.75846   0.00007   0.00000   0.00036   0.00036   3.75882
   R31        3.69500   0.00026   0.00000   0.00126   0.00126   3.69626
   R32        3.68179   0.00010   0.00000   0.00046   0.00046   3.68225
   R33        1.82117  -0.00010   0.00000  -0.00017  -0.00017   1.82099
   R34        1.82049  -0.00004   0.00000  -0.00007  -0.00007   1.82043
   R35        1.85304  -0.00012   0.00000  -0.00023  -0.00023   1.85281
   R36        1.82114  -0.00025   0.00000  -0.00046  -0.00046   1.82068
   R37        1.84977  -0.00074   0.00000  -0.00142  -0.00142   1.84835
   R38        1.84500  -0.01216   0.00000  -0.02317  -0.02317   1.82184
   R39        1.82042   0.00002   0.00000   0.00004   0.00004   1.82046
   R40        1.83593  -0.00011   0.00000  -0.00021  -0.00021   1.83572
   R41        1.84272   0.00077   0.00000   0.00146   0.00146   1.84418
   R42        1.81831  -0.00001   0.00000  -0.00001  -0.00001   1.81829
   R43        1.84903   0.00012   0.00000   0.00024   0.00024   1.84927
   R44        1.82067  -0.00000   0.00000  -0.00000  -0.00000   1.82067
   R45        1.85278  -0.00031   0.00000  -0.00059  -0.00059   1.85219
   R46        1.81433  -0.00004   0.00000  -0.00007  -0.00007   1.81426
   R47        1.81233  -0.00001   0.00000  -0.00002  -0.00002   1.81231
   R48        1.84871   0.00001   0.00000   0.00002   0.00002   1.84873
   R49        1.82061  -0.00007   0.00000  -0.00012  -0.00012   1.82049
   R50        1.84111  -0.00833   0.00000  -0.01575  -0.01575   1.82537
    A1        1.89403  -0.00035   0.00000   0.00166   0.00158   1.89562
    A2        1.88617  -0.00217   0.00000  -0.00968  -0.00962   1.87655
    A3        1.87938   0.00613   0.00000   0.03826   0.03828   1.91766
    A4        1.91364   0.00060   0.00000  -0.00615  -0.00630   1.90734
    A5        1.92354  -0.00187   0.00000  -0.00917  -0.00942   1.91412
    A6        1.96515  -0.00221   0.00000  -0.01363  -0.01371   1.95144
    A7        2.84348  -0.00695   0.00000  -0.02739  -0.02739   2.81609
    A8        2.31720   0.00021   0.00000   0.00084   0.00084   2.31804
    A9        2.35610  -0.00153   0.00000  -0.00602  -0.00602   2.35008
   A10        2.84570  -0.00103   0.00000   0.00000   0.00000   2.84570
   A11        1.98021   0.00105   0.00000   0.00623   0.00623   1.98644
   A12        1.98270  -0.00147   0.00000  -0.00888  -0.00887   1.97382
   A13        1.99112   0.00018   0.00000   0.00079   0.00079   1.99191
   A14        1.77332   0.00031   0.00000   0.00170   0.00171   1.77503
   A15        1.88958  -0.00082   0.00000  -0.00254  -0.00254   1.88704
   A16        1.82833   0.00074   0.00000   0.00256   0.00256   1.83089
   A17        1.81235  -0.00190   0.00000  -0.01068  -0.01076   1.80159
   A18        1.98544  -0.00133   0.00000  -0.00635  -0.00649   1.97895
   A19        1.86767   0.00524   0.00000   0.03346   0.03346   1.90113
   A20        1.94580   0.00007   0.00000  -0.00790  -0.00800   1.93780
   A21        1.92845  -0.00070   0.00000  -0.00361  -0.00361   1.92485
   A22        1.92030  -0.00121   0.00000  -0.00369  -0.00376   1.91655
   A23        1.94596  -0.00022   0.00000  -0.00130  -0.00130   1.94466
   A24        1.88055  -0.00013   0.00000  -0.00048  -0.00048   1.88007
   A25        1.93311   0.00068   0.00000   0.00431   0.00431   1.93742
   A26        1.93173   0.00000   0.00000  -0.00107  -0.00108   1.93066
   A27        1.82723  -0.00021   0.00000  -0.00113  -0.00113   1.82609
   A28        1.94617  -0.00011   0.00000  -0.00031  -0.00031   1.94586
   A29        1.88532  -0.00011   0.00000  -0.00076  -0.00076   1.88456
   A30        1.89442   0.00031   0.00000   0.00159   0.00159   1.89601
   A31        1.95715  -0.00028   0.00000  -0.00147  -0.00147   1.95568
   A32        1.87632  -0.00020   0.00000  -0.00080  -0.00080   1.87552
   A33        1.94135   0.00026   0.00000   0.00113   0.00113   1.94248
   A34        1.90697   0.00002   0.00000   0.00035   0.00035   1.90732
   A35        2.53226  -0.00052   0.00000  -0.00203  -0.00203   2.53023
   A36        1.81826   0.00003   0.00000   0.00026   0.00026   1.81852
   A37        1.87907   0.00016   0.00000   0.00088   0.00088   1.87995
   A38        2.09284  -0.00026   0.00000  -0.00180  -0.00180   2.09105
   A39        1.80039   0.00008   0.00000   0.00107   0.00107   1.80146
   A40        1.73310  -0.00002   0.00000  -0.00016  -0.00016   1.73293
   A41        2.08556   0.00004   0.00000   0.00016   0.00016   2.08572
   A42        2.29330   0.00205   0.00000   0.00809   0.00809   2.30139
   A43        1.83467  -0.00123   0.00000  -0.00435  -0.00434   1.83034
   A44        1.90443  -0.00107   0.00000  -0.00261  -0.00264   1.90179
   A45        1.85061   0.00441   0.00000   0.03126   0.03127   1.88189
   A46        1.91620   0.00069   0.00000  -0.00577  -0.00587   1.91033
   A47        1.99552  -0.00148   0.00000  -0.00978  -0.00987   1.98565
   A48        1.95546  -0.00120   0.00000  -0.00691  -0.00704   1.94842
   A49        2.44669   0.00054   0.00000   0.00215   0.00215   2.44883
   A50        1.83016   0.00033   0.00000   0.00246   0.00246   1.83262
   A51        1.92532  -0.00008   0.00000  -0.00054  -0.00054   1.92478
   A52        1.89530  -0.00005   0.00000   0.00007   0.00007   1.89537
   A53        1.89947  -0.00020   0.00000  -0.00124  -0.00124   1.89823
   A54        1.93645   0.00003   0.00000   0.00030   0.00030   1.93675
   A55        1.97197  -0.00001   0.00000  -0.00081  -0.00081   1.97116
   A56        2.03455  -0.00006   0.00000  -0.00035  -0.00035   2.03420
   A57        2.01642  -0.00023   0.00000  -0.00141  -0.00141   2.01501
   A58        1.93923   0.00003   0.00000   0.00018   0.00018   1.93941
   A59        2.03937  -0.00053   0.00000  -0.00322  -0.00322   2.03615
   A60        1.98603  -0.00013   0.00000  -0.00077  -0.00077   1.98526
   A61        1.92108   0.00323   0.00000   0.01971   0.01971   1.94079
   A62        2.02348  -0.00008   0.00000  -0.00051  -0.00051   2.02298
[...]
     50          8           0        3.127268   -3.115966    3.252948
     51          1           0        2.555339   -3.583331    3.868247
 ---------------------------------------------------------------------
 Rotational constants (GHZ):           0.0812609           0.0348102           0.0331961

 **********************************************************************

            Population analysis using the SCF Density.

 **********************************************************************

 Orbital symmetries:
       Occupied  (A) (A) (A) (A) (A) (A) (A) (A) (A) (A) (A) (A)
                 (A) (A) (A) (A) (A) (A) (A) (A) (A) (A) (A) (A)
                 (A) (A) (A) (A) (A) (A) (A) (A) (A) (A) (A) (A)
                 (A) (A) (A) (A) (A) (A) (A) (A) (A) (A) (A) (A)
                 (A) (A) (A) (A) (A) (A) (A) (A) (A) (A) (A) (A)
                 (A) (A) (A) (A) (A) (A) (A) (A) (A) (A) (A) (A)
                 (A) (A) (A) (A) (A) (A) (A) (A) (A) (A) (A) (A)
                 (A) (A) (A) (A) (A) (A) (A) (A) (A) (A) (A) (A)
                 (A) (A) (A) (A) (A) (A) (A) (A) (A) (A) (A) (A)
                 (A) (A) (A) (A) (A) (A) (A) (A) (A) (A) (A) (A)
                 (A) (A) (A) (A) (A) (A) (A) (A) (A) (A) (A) (A)
                 (A) (A) (A) (A) (A) (A) (A) (A) (A) (A) (A) (A)
                 (A) (A) (A) (A) (A) (A) (A) (A) (A) (A) (A) (A)
                 (A) (A) (A) (A) (A)
       Virtual   (A) (A) (A) (A) (A) (A) (A) (A) (A) (A) (A) (A)
                 (A) (A) (A) (A) (A) (A) (A) (A) (A) (A) (A) (A)
                 (A) (A) (A) (A) (A) (A) (A) (A) (A) (A) (A) (A)
                 (A) (A) (A) (A) (A) (A) (A) (A) (A) (A) (A) (A)
                 (A) (A) (A) (A) (A) (A) (A) (A) (A) (A) (A) (A)
                 (A) (A) (A) (A) (A) (A) (A) (A) (A) (A) (A) (A)
                 (A) (A) (A) (A) (A) (A) (A) (A) (A) (A) (A) (A)
                 (A) (A) (A) (A) (A) (A) (A) (A) (A) (A) (A) (A)
                 (A) (A) (A) (A) (A) (A) (A) (A) (A) (A) (A) (A)
                 (A) (A) (A) (A) (A) (A) (A) (A) (A) (A) (A) (A)
                 (A) (A) (A) (A) (A) (A) (A) (A) (A) (A) (A) (A)
                 (A) (A) (A) (A) (A) (A) (A) (A) (A) (A) (A) (A)
                 (A) (A) (A) (A) (A) (A) (A) (A) (A) (A) (A) (A)
                 (A) (A) (A) (A) (A) (A) (A) (A) (A) (A) (A) (A)
                 (A) (A) (A) (A) (A) (A) (A) (A) (A) (A) (A) (A)
                 (A) (A) (A) (A) (A) (A) (A) (A) (A) (A) (A) (A)
                 (A) (A) (A) (A) (A) (A) (A) (A) (A) (A) (A) (A)
                 (A) (A) (A) (A) (A) (A) (A) (A) (A) (A) (A) (A)
                 (A) (A) (A) (A) (A) (A) (A) (A) (A) (A) (A) (A)
                 (A) (A) (A) (A) (A) (A) (A) (A) (A) (A) (A) (A)
                 (A) (A) (A) (A) (A) (A) (A) (A) (A) (A) (A) (A)
                 (A) (A) (A) (A) (A) (A) (A) (A) (A) (A) (A) (A)
                 (A) (A) (A) (A) (A) (A) (A) (A) (A) (A) (A) (A)
                 (A) (A) (A) (A) (A) (A) (A) (A) (A) (A) (A) (A)
                 (A) (A) (A) (A) (A) (A) (A) (A) (A) (A) (A) (A)
                 (A) (A) (A) (A) (A) (A) (A) (A) (A) (A) (A) (A)
                 (A) (A) (A) (A) (A) (A) (A) (A) (A) (A) (A) (A)
                 (A) (A) (A) (A) (A) (A) (A) (A) (A) (A) (A) (A)
                 (A) (A) (A) (A) (A) (A) (A) (A) (A) (A) (A) (A)
                 (A) (A) (A) (A) (A) (A) (A) (A) (A) (A) (A) (A)
                 (A) (A) (A) (A) (A) (A) (A) (A) (A) (A) (A) (A)
                 (A) (A) (A) (A) (A) (A) (A) (A) (A) (A) (A) (A)
                 (A) (A) (A) (A) (A) (A) (A) (A) (A) (A) (A) (A)
                 (A) (A) (A) (A) (A) (A) (A) (A) (A) (A) (A) (A)
                 (A) (A) (A) (A) (A) (A) (A) (A) (A) (A) (A) (A)
                 (A) (A) (A) (A) (A) (A) (A) (A) (A) (A) (A) (A)
                 (A) (A) (A) (A) (A) (A) (A)
 The electronic state is 1-A.
 Alpha  occ. eigenvalues --  -66.21541 -66.21256 -66.20316 -66.19555 -19.16628
 Alpha  occ. eigenvalues --  -19.16574 -19.16375 -19.16245 -19.15858 -19.15840
 Alpha  occ. eigenvalues --  -19.15508 -19.15059 -19.14902 -19.14866 -19.14839
 Alpha  occ. eigenvalues --  -19.14818 -19.14267 -19.14086 -19.13910 -19.13881
 Alpha  occ. eigenvalues --  -19.13785 -19.13720 -19.13672 -19.13371 -19.12940
 Alpha  occ. eigenvalues --  -19.12458 -19.12292 -19.11859 -19.11410  -5.35491
 Alpha  occ. eigenvalues --   -5.35447  -5.34540  -5.33766  -3.71450  -3.71443
 Alpha  occ. eigenvalues --   -3.71438  -3.71428  -3.71397  -3.71364  -3.70516
 Alpha  occ. eigenvalues --   -3.70486  -3.70432  -3.69784  -3.69697  -3.69634
 Alpha  occ. eigenvalues --   -2.08150  -2.06349  -2.06306  -2.04777  -1.29300
 Alpha  occ. eigenvalues --   -1.28607  -1.28433  -1.27434  -1.27210  -1.27164
 Alpha  occ. eigenvalues --   -1.26709  -1.26610  -1.26209  -1.25444  -1.25132
 Alpha  occ. eigenvalues --   -1.24828  -1.04652  -1.03546  -1.02465  -1.01281
 Alpha  occ. eigenvalues --   -1.00790  -1.00618  -1.00234  -0.99051  -0.98637
 Alpha  occ. eigenvalues --   -0.98349  -0.98034  -0.97797  -0.97432  -0.97205
 Alpha  occ. eigenvalues --   -0.97170  -0.96288  -0.95110  -0.94614  -0.94483
 Alpha  occ. eigenvalues --   -0.93619  -0.93407  -0.91806  -0.90096  -0.89026
 Alpha  occ. eigenvalues --   -0.88005  -0.60933  -0.58850  -0.58186  -0.54919
 Alpha  occ. eigenvalues --   -0.53876  -0.52595  -0.51977  -0.51443  -0.51421
 Alpha  occ. eigenvalues --   -0.51311  -0.51003  -0.50543  -0.50474  -0.50128
 Alpha  occ. eigenvalues --   -0.49801  -0.49550  -0.48452  -0.47396  -0.46431
 Alpha  occ. eigenvalues --   -0.45502  -0.45352  -0.44520  -0.42123  -0.41154
 Alpha  occ. eigenvalues --   -0.40867  -0.39914  -0.39820  -0.39399  -0.39224
 Alpha  occ. eigenvalues --   -0.39036  -0.38755  -0.38586  -0.38069  -0.37887
 Alpha  occ. eigenvalues --   -0.37440  -0.37163  -0.36879  -0.36641  -0.36309
 Alpha  occ. eigenvalues --   -0.36082  -0.35808  -0.35462  -0.35218  -0.35033
 Alpha  occ. eigenvalues --   -0.34970  -0.34852  -0.34801  -0.34674  -0.34533
 Alpha  occ. eigenvalues --   -0.34236  -0.34201  -0.33792  -0.33706  -0.33595
 Alpha  occ. eigenvalues --   -0.33189  -0.33056  -0.32919  -0.32817  -0.32650
 Alpha  occ. eigenvalues --   -0.32457  -0.32208  -0.31924  -0.31623  -0.31588
 Alpha  occ. eigenvalues --   -0.31191  -0.31019  -0.30724  -0.30598  -0.30502
 Alpha  occ. eigenvalues --   -0.30391  -0.30253  -0.29923  -0.29171  -0.28935
 Alpha  occ. eigenvalues --   -0.28348
 Alpha virt. eigenvalues --   -0.04720  -0.04220  -0.03893  -0.03317  -0.02468
 Alpha virt. eigenvalues --   -0.02382  -0.01800  -0.01400  -0.01051  -0.00999
 Alpha virt. eigenvalues --   -0.00751  -0.00161   0.00089   0.00347   0.00563
 Alpha virt. eigenvalues --    0.01046   0.01132   0.01265   0.01743   0.02154
 Alpha virt. eigenvalues --    0.02578   0.02757   0.03000   0.03078   0.03223
 Alpha virt. eigenvalues --    0.03446   0.04299   0.04497   0.04926   0.05333
 Alpha virt. eigenvalues --    0.06027   0.06243   0.06716   0.07011   0.07533
 Alpha virt. eigenvalues --    0.08150   0.08445   0.08928   0.09385   0.10121
 Alpha virt. eigenvalues --    0.10776   0.11453   0.12111   0.12621   0.13565
 Alpha virt. eigenvalues --    0.13895   0.14692   0.15043   0.15159   0.15521
 Alpha virt. eigenvalues --    0.15717   0.16450   0.16726   0.16994   0.17330
 Alpha virt. eigenvalues --    0.17832   0.17979   0.18108   0.18297   0.18541
 Alpha virt. eigenvalues --    0.19574   0.19922   0.20262   0.20540   0.20656
 Alpha virt. eigenvalues --    0.20930   0.21200   0.21752   0.22185   0.22488
 Alpha virt. eigenvalues --    0.22587   0.22981   0.23165   0.23431   0.23890
 Alpha virt. eigenvalues --    0.24327   0.24935   0.25196   0.25353   0.25577
 Alpha virt. eigenvalues --    0.26075   0.26246   0.26626   0.27187   0.27407
 Alpha virt. eigenvalues --    0.27819   0.28560   0.29025   0.29553   0.29557
 Alpha virt. eigenvalues --    0.30376   0.30732   0.30898   0.31187   0.31817
 Alpha virt. eigenvalues --    0.32910   0.33502   0.33977   0.34417   0.35326
 Alpha virt. eigenvalues --    0.35613   0.36429   0.36836   0.37149   0.38170
 Alpha virt. eigenvalues --    0.38428   0.39156   0.39910   0.41073   0.41849
 Alpha virt. eigenvalues --    0.42637   0.43925   0.45429   0.46597   0.47303
 Alpha virt. eigenvalues --    0.48058   0.49720   0.52057   0.56313   0.56697
 Alpha virt. eigenvalues --    0.58526   0.60165   0.60422   0.64333   0.65376
 Alpha virt. eigenvalues --    0.68381   0.76894   0.78024   0.78418   0.79545
 Alpha virt. eigenvalues --    0.80329   0.80709   0.81042   0.81975   0.82605
 Alpha virt. eigenvalues --    0.83579   0.83899   0.84733   0.85163   0.86068
 Alpha virt. eigenvalues --    0.86918   0.87618   0.89568   0.89632   0.90283
 Alpha virt. eigenvalues --    0.90677   0.91491   0.92607   0.92715   0.93123
 Alpha virt. eigenvalues --    0.93770   0.94030   0.94406   0.95266   0.95423
 Alpha virt. eigenvalues --    0.95624   0.96421   0.96795   0.96999   0.97345
 Alpha virt. eigenvalues --    0.97753   0.98247   0.98468   0.99221   0.99641
 Alpha virt. eigenvalues --    0.99778   1.00235   1.00730   1.01018   1.01345
 Alpha virt. eigenvalues --    1.01881   1.02150   1.03117   1.03805   1.04147
 Alpha virt. eigenvalues --    1.04748   1.05556   1.05686   1.06008   1.06391
 Alpha virt. eigenvalues --    1.07147   1.08009   1.08094   1.08687   1.09356
 Alpha virt. eigenvalues --    1.09437   1.09645   1.10056   1.10513   1.11287
 Alpha virt. eigenvalues --    1.11596   1.12686   1.13621   1.13942   1.14818
 Alpha virt. eigenvalues --    1.15327   1.15774   1.16320   1.16562   1.16797
 Alpha virt. eigenvalues --    1.17224   1.17943   1.18470   1.19023   1.19507
 Alpha virt. eigenvalues --    1.19741   1.20274   1.20453   1.21516   1.21814
 Alpha virt. eigenvalues --    1.22151   1.22900   1.23231   1.24454   1.24954
 Alpha virt. eigenvalues --    1.25228   1.26857   1.27335   1.28089   1.28865
 Alpha virt. eigenvalues --    1.29376   1.29501   1.29906   1.30718   1.31730
 Alpha virt. eigenvalues --    1.33032   1.34056   1.34811   1.35636   1.42564
 Alpha virt. eigenvalues --    1.43125   1.43873   1.44997   1.45864   1.46687
 Alpha virt. eigenvalues --    1.46836   1.48579   1.49635   1.50453   1.50595
 Alpha virt. eigenvalues --    1.50926   1.51794   1.52992   1.53580   1.53872
 Alpha virt. eigenvalues --    1.54512   1.54918   1.55832   1.55961   1.56699
 Alpha virt. eigenvalues --    1.56961   1.57018   1.57631   1.58033   1.58446
 Alpha virt. eigenvalues --    1.58575   1.59133   1.59268   1.59616   1.59847
 Alpha virt. eigenvalues --    1.60628   1.61296   1.61611   1.62064   1.62501
 Alpha virt. eigenvalues --    1.63025   1.63243   1.63983   1.64327   1.64691
 Alpha virt. eigenvalues --    1.65524   1.65740   1.66195   1.66277   1.66886
 Alpha virt. eigenvalues --    1.67216   1.67279   1.68784   1.70162   1.70346
 Alpha virt. eigenvalues --    1.70508   1.71839   1.72221   1.72491   1.72788
 Alpha virt. eigenvalues --    1.73488   1.73974   1.74768   1.75122   1.75803
 Alpha virt. eigenvalues --    1.75951   1.76768   1.77202   1.77953   1.78139
 Alpha virt. eigenvalues --    1.78348   1.78554   1.78681   1.79331   1.79591
 Alpha virt. eigenvalues --    1.79795   1.80384   1.80623   1.81036   1.81177
 Alpha virt. eigenvalues --    1.81528   1.81949   1.82896   1.83187   1.83518
 Alpha virt. eigenvalues --    1.83664   1.83778   1.84378   1.84429   1.85241
 Alpha virt. eigenvalues --    1.85502   1.85991   1.86215   1.86671   1.86875
 Alpha virt. eigenvalues --    1.87043   1.87213   1.87656   1.88115   1.88599
 Alpha virt. eigenvalues --    1.89287   1.90356   1.90484   1.91136   1.92968
 Alpha virt. eigenvalues --    1.93425   1.93780   1.95385   1.96026   1.96914
 Alpha virt. eigenvalues --    1.97299   1.97762   1.99378   1.99731   2.02347
 Alpha virt. eigenvalues --    2.04181   2.04551   2.08354   2.09311   2.13164
 Alpha virt. eigenvalues --    2.16217   2.17081   2.33442   2.33938   2.34269
 Alpha virt. eigenvalues --    2.34742   2.34992   2.35634   2.36455   2.37015
 Alpha virt. eigenvalues --    2.37227   2.37562   2.38391   2.40001   2.40476
 Alpha virt. eigenvalues --    2.40924   2.41662   2.41995   2.42873   2.45618
 Alpha virt. eigenvalues --    2.46822   2.47702   2.49721   2.51798   2.54083
 Alpha virt. eigenvalues --    2.55602   2.58882   2.59154   2.60041   2.60695
 Alpha virt. eigenvalues --    2.60821   2.61504   2.61736   2.61766   2.62080
 Alpha virt. eigenvalues --    2.62300   2.62586   2.62733   2.63163   2.63211
 Alpha virt. eigenvalues --    2.63506   2.63627   2.63736   2.63808   2.64408
 Alpha virt. eigenvalues --    2.64409   2.64791   2.64869   2.65479   2.65719
 Alpha virt. eigenvalues --    2.65965   2.66185   2.66397   2.68052   2.68555
 Alpha virt. eigenvalues --    2.68890   2.70198   2.70479   2.71231   2.72585
 Alpha virt. eigenvalues --    2.72849   2.75584   2.75935   2.76433   2.76732
 Alpha virt. eigenvalues --    2.76942   2.78755   2.82778   2.84771   2.86647
 Alpha virt. eigenvalues --    2.87864   2.91941   3.40216   3.40982   3.41537
 Alpha virt. eigenvalues --    3.41957   3.42198   3.42278   3.42901   3.43807
 Alpha virt. eigenvalues --    3.45244   3.45448   3.46314   3.47900   3.48064
 Alpha virt. eigenvalues --    3.49588   3.50575   3.54455   3.55058   3.55152
 Alpha virt. eigenvalues --    4.68983   6.08613   6.48576   7.81930
          Condensed to atoms (all electrons):
 Mulliken charges:
               1
     1  Si   1.278678
     2  O   -0.619917
     3  O   -0.654599
     4  O   -0.648489
     5  O   -0.756375
     6  Zr   1.638914
     7  Si   1.111653
     8  Si   1.150327
     9  Si   1.121706
    10  O   -0.819046
    11  Zr   1.486014
    12  O   -0.817904
    13  Zr   1.625461
    14  O   -0.828527
    15  Zr   1.545318
    16  O   -0.627507
    17  O   -0.574716
    18  O   -0.670861
    19  O   -0.633429
    20  O   -0.634076
    21  O   -0.586705
    22  O   -0.586036
    23  O   -0.646201
    24  O   -0.617474
    25  H    0.355696
    26  H    0.338201
    27  H    0.364797
    28  H    0.369081
    29  H    0.370461
    30  H    0.338449
    31  H    0.335481
    32  H    0.334080
    33  H    0.344013
    34  O   -0.697576
    35  H    0.331570
    36  O   -0.708633
    37  H    0.366031
    38  O   -0.750821
    39  H    0.330048
    40  O   -0.764457
    41  H    0.370494
    42  O   -0.695940
    43  H    0.332846
    44  O   -0.699718
    45  H    0.334140
    46  O   -0.762178
    47  H    0.379861
    48  O   -0.740270
    49  H    0.339325
    50  O   -0.694335
    51  H    0.343141
 Sum of Mulliken charges =  -0.00000
 Mulliken charges with hydrogens summed into heavy atoms:
               1
     1  Si   1.278678
     2  O   -0.619917
     3  O   -0.654599
     4  O   -0.648489
     5  O   -0.756375
     6  Zr   1.638914
     7  Si   1.111653
     8  Si   1.150327
     9  Si   1.121706
    10  O   -0.819046
    11  Zr   1.486014
    12  O   -0.817904
    13  Zr   1.625461
    14  O   -0.828527
    15  Zr   1.545318
    16  O   -0.289058
    17  O   -0.239235
    18  O   -0.300400
    19  O   -0.289416
    20  O   -0.264995
    21  O   -0.252624
    22  O   -0.247835
    23  O   -0.290505
    24  O   -0.252677
    34  O   -0.366006
    36  O   -0.342602
    38  O   -0.420773
    40  O   -0.393963
    42  O   -0.363094
    44  O   -0.365577
    46  O   -0.382317
    48  O   -0.400945
    50  O   -0.351194
 Electronic spatial extent (au):  <R**2>=          27607.4984
 Charge=             -0.0000 electrons
 Dipole moment (field-independent basis, Debye):
    X=              4.0460    Y=              1.8969    Z=              5.9160  Tot=              7.4140
 Quadrupole moment (field-independent basis, Debye-Ang):
   XX=           -297.4584   YY=           -249.3607   ZZ=           -256.8326
   XY=             -1.5265   XZ=              2.5810   YZ=             -9.8625
 Traceless Quadrupole moment (field-independent basis, Debye-Ang):
   XX=            -29.5745   YY=             18.5232   ZZ=             11.0513
   XY=             -1.5265   XZ=              2.5810   YZ=             -9.8625
 Octapole moment (field-independent basis, Debye-Ang**2):
  XXX=            436.1228  YYY=             70.3160  ZZZ=             98.4942  XYY=            116.3447
  XXY=            -62.1549  XXZ=            142.4337  XZZ=            162.2010  YZZ=             22.9861
  YYZ=             10.2235  XYZ=             20.5941
 Hexadecapole moment (field-independent basis, Debye-Ang**3):
 XXXX=         -25104.4733 YYYY=          -6018.6377 ZZZZ=          -5029.8276 XXXY=            486.6867
 XXXZ=            233.6519 YYYX=            278.3102 YYYZ=           -112.2500 ZZZX=           -302.2835
 ZZZY=            -81.1231 XXYY=          -4926.8657 XXZZ=          -4780.1485 YYZZ=          -1715.0157
 XXYZ=           -295.8935 YYXZ=            -94.7715 ZZXY=           -163.8199
 N-N= 5.498203397885D+03 E-N=-1.859867964832D+04  KE= 3.091336885922D+03
 1\1\GINC-GRA594\FOpt\RB3LYP\Gen\H18O25Si4Zr4\SARASHS\24-Jun-2020\0\\#n
  B3LYP/GEN PSEUDO=READ Opt(modredundant)\\Title\\0,1\Si,-2.5345533782,
 0.5587221763,-0.3451315908\O,-2.4666281123,-0.0072110435,1.1911136322\
 O,-3.3979339281,1.9729176595,-0.3608222855\O,-3.2835498318,-0.52657132
 74,-1.3109813587\O,-1.0355907362,0.846079088,-0.8909208952\Zr,0.693196
 0805,0.7108104217,-1.8668280876\Si,-3.3162820213,-0.5812368753,2.46746
 95386\Si,-5.0136454531,2.2870414548,-0.3895478779\Si,-4.5405390247,-1.
 5439592914,-1.6415567344\O,0.803643001,-0.8454617552,-3.0107459429\Zr,
 2.0358496421,-1.8990365321,-4.2353279423\O,2.2935055834,0.4538110694,-
 0.6764705639\Zr,3.9729803108,-0.5168217501,-0.8416420417\O,1.127368594
 1,2.3024783171,-2.9544374042\Zr,2.6337612463,3.1013010042,-3.964464629
 6\O,-5.6579734748,2.1287046533,-1.9070267277\O,-5.2292969775,3.8165529
 87,0.1609120656\O,-5.8291891236,1.1793649785,0.5285485465\O,-3.7817858
 407,-2.1087033173,1.9836654827\O,-4.5656468651,0.3890357613,2.87498798
 3\O,-2.3708105342,-0.7582272299,3.7992374382\O,-4.456435803,-2.0093706
 646,-3.2121909024\O,-5.9705033873,-0.7057060039,-1.4744816662\O,-4.531
 5996399,-2.8091712473,-0.6201588873\H,-6.0795740672,0.0279245744,-2.10
 13149117\H,-3.6289159008,-2.4196341147,-3.4870267397\H,-4.2100550384,-
 2.6380230315,0.2866309288\H,-5.1323474789,0.7056569258,2.1412078615\H,
 -6.1100162536,0.3991632978,0.0009211324\H,-5.3796268099,2.7772449274,-
 2.56300806\H,-4.4994022456,4.1728289611,0.6791043212\H,-2.4037505529,-
 0.01499426,4.4115422724\H,-4.2152856308,-2.6350513561,2.665902456\O,0.
 8705829844,-2.4010924685,-5.7442723129\H,0.8213237649,-2.09317538,-6.6
 547067861\O,3.3015681784,-0.6591585945,-5.0333474019\H,3.7454419307,0.
 1732442874,-4.7683473754\O,2.6959950492,-3.75342913,-3.7204754365\H,2.
 4791883219,-4.5543489305,-4.2101728105\O,4.0879382223,1.7461859263,-3.
 8807534753\H,4.692157388,1.5166533174,-3.1430738679\O,2.13479555,3.366
 5815681,-5.8402275421\H,1.923128587,4.0356116177,-6.4959175404\O,3.167
 2854929,4.7604555904,-3.0847502936\H,3.0825631191,5.3720096686,-2.3503
 292727\O,3.5531809885,-1.8910533093,-2.2321640365\H,3.6614912021,-2.85
 30143945,-2.3706782774\O,5.3262558075,0.7591522743,-1.5882344967\H,6.2
 53992212,0.9200299843,-1.3847280121\O,4.5963986306,-1.3145054914,0.821
 9354806\H,4.382416222,-1.5206249929,1.736185048\\Version=ES64L-G16RevB
 .01\State=1-A\HF=-3237.5630725\RMSD=9.092e-09\RMSF=1.225e-04\Dipole=2.
 1757203,1.6250571,1.0647656\Quadrupole=-14.2009599,7.6784732,6.5224868
 ,-3.7791818,15.0516753,-6.0525946\PG=C01 [X(H18O25Si4Zr4)]\\@


 ORIGINALITY CONSISTS NOT IN SAYING WHAT NO ONE HAS EVER SAID BEFORE, 
 BUT IN SAYING WHAT YOU THINK YOUR SELF.

                                    -- JAMES F. STEPHEN
 Job cpu time:       1 days 13 hours 41 minutes 14.0 seconds.
 Elapsed time:       0 days  2 hours 23 minutes 30.6 seconds.
 File lengths (MBytes):  RWF=    218 Int=      0 D2E=      0 Chk=     28 Scr=      1
 Normal termination of Gaussian 16 at Wed Jun 24 17:07:26 2020.
