 Entering Gaussian System, Link 0=g16
 Initial command:
 /opt/software/gaussian/g16.b01/l1.exe "/localscratch/sarashs.33453281.0/Gau-31416.inp" -scrdir="/localscratch/sarashs.33453281.0/"
 Entering Link 1 = /opt/software/gaussian/g16.b01/l1.exe PID=     31419.
  
 Copyright (c) 1988-2017, Gaussian, Inc.  All Rights Reserved.
  
 This is part of the Gaussian(R) 16 program.  It is based on
 the Gaussian(R) 09 system (copyright 2009, Gaussian, Inc.),
 the Gaussian(R) 03 system (copyright 2003, Gaussian, Inc.),
 the Gaussian(R) 98 system (copyright 1998, Gaussian, Inc.),
 the Gaussian(R) 94 system (copyright 1995, Gaussian, Inc.),
 the Gaussian 92(TM) system (copyright 1992, Gaussian, Inc.),
 the Gaussian 90(TM) system (copyright 1990, Gaussian, Inc.),
 the Gaussian 88(TM) system (copyright 1988, Gaussian, Inc.),
 the Gaussian 86(TM) system (copyright 1986, Carnegie Mellon
 University), and the Gaussian 82(TM) system (copyright 1983,
 Carnegie Mellon University). Gaussian is a federally registered
 trademark of Gaussian, Inc.
  
 This software contains proprietary and confidential information,
 including trade secrets, belonging to Gaussian, Inc.
  
 This software is provided under written license and may be
 used, copied, transmitted, or stored only in accord with that
 written license.
  
 The following legend is applicable only to US Government
 contracts under FAR:
  
                    RESTRICTED RIGHTS LEGEND
  
 Use, reproduction and disclosure by the US Government is
 subject to restrictions as set forth in subparagraphs (a)
 and (c) of the Commercial Computer Software - Restricted
 Rights clause in FAR 52.227-19.
  
 Gaussian, Inc.
 340 Quinnipiac St., Bldg. 40, Wallingford CT 06492
  
  
 ---------------------------------------------------------------
 Warning -- This program may not be used in any manner that
 competes with the business of Gaussian, Inc. or will provide
 assistance to any competitor of Gaussian, Inc.  The licensee
 of this program is prohibited from giving any competitor of
 Gaussian, Inc. access to this program.  By using this program,
 the user acknowledges that Gaussian, Inc. is engaged in the
 business of creating and licensing software in the field of
 computational chemistry and represents and warrants to the
 licensee that it is not a competitor of Gaussian, Inc. and that
 it will not use this program in any manner prohibited above.
 ---------------------------------------------------------------
  

 Cite this work as:
 Gaussian 16, Revision B.01,
 M. J. Frisch, G. W. Trucks, H. B. Schlegel, G. E. Scuseria, 
 M. A. Robb, J. R. Cheeseman, G. Scalmani, V. Barone, 
 G. A. Petersson, H. Nakatsuji, X. Li, M. Caricato, A. V. Marenich, 
 J. Bloino, B. G. Janesko, R. Gomperts, B. Mennucci, H. P. Hratchian, 
 J. V. Ortiz, A. F. Izmaylov, J. L. Sonnenberg, D. Williams-Young, 
 F. Ding, F. Lipparini, F. Egidi, J. Goings, B. Peng, A. Petrone, 
 T. Henderson, D. Ranasinghe, V. G. Zakrzewski, J. Gao, N. Rega, 
 G. Zheng, W. Liang, M. Hada, M. Ehara, K. Toyota, R. Fukuda, 
 J. Hasegawa, M. Ishida, T. Nakajima, Y. Honda, O. Kitao, H. Nakai, 
 T. Vreven, K. Throssell, J. A. Montgomery, Jr., J. E. Peralta, 
 F. Ogliaro, M. J. Bearpark, J. J. Heyd, E. N. Brothers, K. N. Kudin, 
 V. N. Staroverov, T. A. Keith, R. Kobayashi, J. Normand, 
 K. Raghavachari, A. P. Rendell, J. C. Burant, S. S. Iyengar, 
 J. Tomasi, M. Cossi, J. M. Millam, M. Klene, C. Adamo, R. Cammi, 
 J. W. Ochterski, R. L. Martin, K. Morokuma, O. Farkas, 
 J. B. Foresman, and D. J. Fox, Gaussian, Inc., Wallingford CT, 2016.
 
 ******************************************
 Gaussian 16:  ES64L-G16RevB.01 20-Dec-2017
                24-Jun-2020 
 ******************************************
 %NProcShared=16
 Will use up to   16 processors via shared memory.
 ------------------------------------------
 #n B3LYP/GEN PSEUDO=READ Opt(modredundant)
 ------------------------------------------
 1/18=120,19=15,26=3,38=1/1,3;
 2/9=110,12=2,17=6,18=5,40=1/2;
 3/5=7,11=2,16=1,17=8,25=1,30=1,71=1,74=-5/1,2,3;
 4//1;
 5/5=2,38=5/2;
 6/7=2,8=2,9=2,10=2,28=1/1;
 7//1,2,3,16;
 1/18=20,19=15,26=3/3(2);
 2/9=110/2;
 99//99;
 2/9=110/2;
 3/5=7,6=1,11=2,16=1,17=8,25=1,30=1,71=1,74=-5,82=7/1,2,3;
 4/5=5,16=3,69=1/1;
 5/5=2,38=5/2;
 7//1,2,3,16;
 1/18=20,19=15,26=3/3(-5);
 2/9=110/2;
 6/7=2,8=2,9=2,10=2,19=2,28=1/1;
 99/9=1/99;
 -----
 Title
 -----
 Symbolic Z-matrix:
 Charge =  0 Multiplicity = 1
 Si                   -2.76356   0.50373  -0.80236 
 O                    -2.64408  -0.06281   0.73154 
 O                    -3.71347   1.8573   -0.78988 
 O                    -3.46982  -0.65647  -1.71915 
 O                    -1.26704   0.87374  -1.30905 
 Zr                    0.57698   0.55499  -0.57239 
 Si                   -2.95182  -0.40071   2.29443 
 Si                   -5.29329   2.11319  -0.39088 
 Si                   -4.65193  -1.79724  -1.46558 
 O                     1.39826  -1.06322  -1.23055 
 Zr                    3.03995  -2.26222  -1.12946 
 O                     0.60804   0.24313   1.42717 
 Zr                    1.79152  -0.85733   2.55699 
 O                     1.82912   2.04671  -0.867 
 Zr                    3.63981   2.65033  -0.31647 
 O                    -6.30259   1.76732  -1.65717 
 O                    -5.44687   3.68028   0.05984 
 O                    -5.76721   1.08545   0.81639 
 O                    -3.50601  -1.97299   2.26095 
 O                    -4.03994   0.60192   2.98173 
 O                    -1.51274  -0.31185   3.10045 
 O                    -4.9739   -2.52135  -2.90029 
 O                    -6.04082  -1.02047  -0.97357 
 O                    -4.21989  -2.88703  -0.34024 
 H                    -6.38886  -0.36717  -1.60281 
 H                    -4.21233  -2.86813  -3.37752 
 H                    -3.92943  -2.60256   0.54609 
 H                    -4.78107   0.84544   2.39047 
 H                    -6.04405   0.21773   0.45311 
 H                    -6.24075   2.34318  -2.42744 
 H                    -4.62851   4.12226   0.31086 
 H                    -0.83615   0.10482   2.53314 
 H                    -4.05643  -2.25627   2.99954 
 O                     3.40714  -2.73571  -3.00377 
 H                     4.07895  -2.45989  -3.63498 
 O                     4.55799  -1.14503  -0.64958 
 H                     4.70879  -0.38054  -0.05779 
 O                     2.88408  -4.12893  -0.34381 
 H                     3.00817  -4.94266  -0.8445 
 O                     4.33022   1.19449   0.84953 
 H                     4.16508   0.99174   1.79446 
 O                     4.80473   2.81415  -1.87831 
 H                     5.23009   3.419    -2.49069 
 O                     3.4634    4.31575   0.67912 
 H                     2.96193   5.05225   1.03391 
 O                     2.52311  -2.26116   1.33392 
 H                     2.56116  -3.2376    1.28742 
 O                     3.28535   0.28451   3.24956 
 H                     3.53554   0.57155   4.13455 
 O                     0.67719  -1.54602   3.98896 
 H                    -0.2841   -1.4098    4.07018 
 
 The following ModRedundant input section has been read:
 A       1       5       6 F                                                   
 

 GradGradGradGradGradGradGradGradGradGradGradGradGradGradGradGradGradGrad
 Berny optimization.
 Initialization pass.
                           ----------------------------
                           !    Initial Parameters    !
                           ! (Angstroms and Degrees)  !
 --------------------------                            --------------------------
 ! Name  Definition              Value          Derivative Info.                !
 --------------------------------------------------------------------------------
 ! R1    R(1,2)                  1.6395         estimate D2E/DX2                !
 ! R2    R(1,3)                  1.6537         estimate D2E/DX2                !
 ! R3    R(1,4)                  1.6387         estimate D2E/DX2                !
 ! R4    R(1,5)                  1.6227         estimate D2E/DX2                !
 ! R5    R(2,7)                  1.6283         estimate D2E/DX2                !
 ! R6    R(3,8)                  1.6494         estimate D2E/DX2                !
 ! R7    R(4,9)                  1.6622         estimate D2E/DX2                !
 ! R8    R(5,6)                  2.0111         estimate D2E/DX2                !
 ! R9    R(6,10)                 1.9304         estimate D2E/DX2                !
 ! R10   R(6,12)                 2.024          estimate D2E/DX2                !
 ! R11   R(6,14)                 1.9697         estimate D2E/DX2                !
 ! R12   R(7,19)                 1.6674         estimate D2E/DX2                !
 ! R13   R(7,20)                 1.6315         estimate D2E/DX2                !
 ! R14   R(7,21)                 1.6518         estimate D2E/DX2                !
 ! R15   R(8,16)                 1.6558         estimate D2E/DX2                !
 ! R16   R(8,17)                 1.6378         estimate D2E/DX2                !
 ! R17   R(8,18)                 1.6548         estimate D2E/DX2                !
 ! R18   R(9,22)                 1.639          estimate D2E/DX2                !
 ! R19   R(9,23)                 1.6657         estimate D2E/DX2                !
 ! R20   R(9,24)                 1.625          estimate D2E/DX2                !
 ! R21   R(10,11)                2.0354         estimate D2E/DX2                !
 ! R22   R(11,34)                1.9678         estimate D2E/DX2                !
 ! R23   R(11,36)                1.945          estimate D2E/DX2                !
 ! R24   R(11,38)                2.0313         estimate D2E/DX2                !
 ! R25   R(12,13)                1.9718         estimate D2E/DX2                !
 ! R26   R(13,46)                2.0005         estimate D2E/DX2                !
 ! R27   R(13,48)                2.0037         estimate D2E/DX2                !
 ! R28   R(13,50)                1.9408         estimate D2E/DX2                !
 ! R29   R(14,15)                1.9865         estimate D2E/DX2                !
 ! R30   R(15,40)                1.9889         estimate D2E/DX2                !
 ! R31   R(15,42)                1.9553         estimate D2E/DX2                !
 ! R32   R(15,44)                1.9483         estimate D2E/DX2                !
 ! R33   R(16,30)                0.9637         estimate D2E/DX2                !
 ! R34   R(17,31)                0.9634         estimate D2E/DX2                !
 ! R35   R(18,29)                0.9806         estimate D2E/DX2                !
 ! R36   R(19,33)                0.9637         estimate D2E/DX2                !
 ! R37   R(20,28)                0.9789         estimate D2E/DX2                !
 ! R38   R(21,32)                0.9763         estimate D2E/DX2                !
 ! R39   R(22,26)                0.9633         estimate D2E/DX2                !
 ! R40   R(23,25)                0.9715         estimate D2E/DX2                !
 ! R41   R(24,27)                0.9751         estimate D2E/DX2                !
 ! R42   R(34,35)                0.9622         estimate D2E/DX2                !
 ! R43   R(36,37)                0.9785         estimate D2E/DX2                !
 ! R44   R(38,39)                0.9635         estimate D2E/DX2                !
 ! R45   R(40,41)                0.9804         estimate D2E/DX2                !
 ! R46   R(42,43)                0.9601         estimate D2E/DX2                !
 ! R47   R(44,45)                0.9591         estimate D2E/DX2                !
 ! R48   R(46,47)                0.9783         estimate D2E/DX2                !
 ! R49   R(48,49)                0.9634         estimate D2E/DX2                !
 ! R50   R(50,51)                0.9743         estimate D2E/DX2                !
 ! A1    A(2,1,3)              108.5202         estimate D2E/DX2                !
 ! A2    A(2,1,4)              108.0696         estimate D2E/DX2                !
 ! A3    A(2,1,5)              107.6808         estimate D2E/DX2                !
 ! A4    A(3,1,4)              109.6434         estimate D2E/DX2                !
 ! A5    A(3,1,5)              110.2104         estimate D2E/DX2                !
 ! A6    A(4,1,5)              112.595          estimate D2E/DX2                !
 ! A7    A(1,2,7)              162.9195         estimate D2E/DX2                !
 ! A8    A(1,3,8)              132.766          estimate D2E/DX2                !
 ! A9    A(1,4,9)              134.9946         estimate D2E/DX2                !
 ! A10   A(1,5,6)              134.0339         Frozen                          !
 ! A11   A(5,6,10)             113.458          estimate D2E/DX2                !
 ! A12   A(5,6,12)             113.6009         estimate D2E/DX2                !
 ! A13   A(5,6,14)             114.0824         estimate D2E/DX2                !
 ! A14   A(10,6,12)            101.6039         estimate D2E/DX2                !
 ! A15   A(10,6,14)            108.2645         estimate D2E/DX2                !
 ! A16   A(12,6,14)            104.7557         estimate D2E/DX2                !
 ! A17   A(2,7,19)             103.84           estimate D2E/DX2                !
 ! A18   A(2,7,20)             113.7575         estimate D2E/DX2                !
 ! A19   A(2,7,21)             107.0096         estimate D2E/DX2                !
 ! A20   A(19,7,20)            111.4863         estimate D2E/DX2                !
 ! A21   A(19,7,21)            110.4922         estimate D2E/DX2                !
 ! A22   A(20,7,21)            110.0253         estimate D2E/DX2                !
 ! A23   A(3,8,16)             111.4953         estimate D2E/DX2                !
 ! A24   A(3,8,17)             107.7477         estimate D2E/DX2                !
 ! A25   A(3,8,18)             110.7593         estimate D2E/DX2                !
 ! A26   A(16,8,17)            110.6802         estimate D2E/DX2                !
 ! A27   A(16,8,18)            104.6923         estimate D2E/DX2                !
 ! A28   A(17,8,18)            111.5071         estimate D2E/DX2                !
 ! A29   A(4,9,22)             108.021          estimate D2E/DX2                !
 ! A30   A(4,9,23)             108.5421         estimate D2E/DX2                !
 ! A31   A(4,9,24)             112.1363         estimate D2E/DX2                !
 ! A32   A(22,9,23)            107.505          estimate D2E/DX2                !
 ! A33   A(22,9,24)            111.2311         estimate D2E/DX2                !
 ! A34   A(23,9,24)            109.2613         estimate D2E/DX2                !
 ! A35   A(6,10,11)            145.0879         estimate D2E/DX2                !
 ! A36   A(10,11,34)           104.1785         estimate D2E/DX2                !
 ! A37   A(10,11,36)           107.6627         estimate D2E/DX2                !
 ! A38   A(10,11,38)           119.9111         estimate D2E/DX2                !
 ! A39   A(34,11,36)           103.155          estimate D2E/DX2                !
 ! A40   A(34,11,38)            99.2996         estimate D2E/DX2                !
 ! A41   A(36,11,38)           119.4936         estimate D2E/DX2                !
 ! A42   A(6,12,13)            131.3969         estimate D2E/DX2                !
 ! A43   A(12,13,46)           105.1188         estimate D2E/DX2                !
 ! A44   A(12,13,48)           109.1153         estimate D2E/DX2                !
 ! A45   A(12,13,50)           106.0332         estimate D2E/DX2                !
 ! A46   A(46,13,48)           109.7899         estimate D2E/DX2                !
 ! A47   A(46,13,50)           114.3349         estimate D2E/DX2                !
 ! A48   A(48,13,50)           112.0395         estimate D2E/DX2                !
 ! A49   A(6,14,15)            140.1845         estimate D2E/DX2                !
 ! A50   A(14,15,40)           104.8605         estimate D2E/DX2                !
 ! A51   A(14,15,42)           110.3127         estimate D2E/DX2                !
 ! A52   A(14,15,44)           108.5922         estimate D2E/DX2                !
 ! A53   A(40,15,42)           108.8323         estimate D2E/DX2                !
 ! A54   A(40,15,44)           110.9501         estimate D2E/DX2                !
 ! A55   A(42,15,44)           112.9855         estimate D2E/DX2                !
 ! A56   A(8,16,30)            116.5711         estimate D2E/DX2                !
 ! A57   A(8,17,31)            115.5324         estimate D2E/DX2                !
 ! A58   A(8,18,29)            111.1097         estimate D2E/DX2                !
 ! A59   A(7,19,33)            116.8474         estimate D2E/DX2                !
 ! A60   A(7,20,28)            113.7913         estimate D2E/DX2                !
 ! A61   A(7,21,32)            110.0697         estimate D2E/DX2                !
 ! A62   A(9,22,26)            115.9371         estimate D2E/DX2                !
 ! A63   A(9,23,25)            114.8968         estimate D2E/DX2                !
 ! A64   A(9,24,27)            120.8639         estimate D2E/DX2                !
 ! A65   A(11,34,35)           133.3272         estimate D2E/DX2                !
 ! A66   A(11,36,37)           135.9147         estimate D2E/DX2                !
 ! A67   A(11,38,39)           124.4218         estimate D2E/DX2                !
 ! A68   A(15,40,41)           131.1415         estimate D2E/DX2                !
 ! A69   A(15,42,43)           145.7118         estimate D2E/DX2                !
 ! A70   A(15,44,45)           153.23           estimate D2E/DX2                !
 ! A71   A(13,46,47)           138.0486         estimate D2E/DX2                !
 ! A72   A(13,48,49)           132.9124         estimate D2E/DX2                !
 ! A73   A(13,50,51)           125.3386         estimate D2E/DX2                !
 ! D1    D(3,1,2,7)             26.3443         estimate D2E/DX2                !
 ! D2    D(4,1,2,7)            -92.4856         estimate D2E/DX2                !
 ! D3    D(5,1,2,7)            145.6313         estimate D2E/DX2                !
 ! D4    D(2,1,3,8)            -62.7632         estimate D2E/DX2                !
 ! D5    D(4,1,3,8)             55.0697         estimate D2E/DX2                !
 ! D6    D(5,1,3,8)            179.5501         estimate D2E/DX2                !
 ! D7    D(2,1,4,9)             35.4977         estimate D2E/DX2                !
 ! D8    D(3,1,4,9)            -82.6158         estimate D2E/DX2                !
 ! D9    D(5,1,4,9)            154.3011         estimate D2E/DX2                !
 ! D10   D(2,1,5,6)              9.5982         estimate D2E/DX2                !
 ! D11   D(3,1,5,6)            127.8022         estimate D2E/DX2                !
 ! D12   D(4,1,5,6)           -109.4322         estimate D2E/DX2                !
 ! D13   D(1,2,7,19)           100.9483         estimate D2E/DX2                !
 ! D14   D(1,2,7,20)           -20.4241         estimate D2E/DX2                !
 ! D15   D(1,2,7,21)          -142.1534         estimate D2E/DX2                !
 ! D16   D(1,3,8,16)           -83.6614         estimate D2E/DX2                !
 ! D17   D(1,3,8,17)           154.7            estimate D2E/DX2                !
 ! D18   D(1,3,8,18)            32.4929         estimate D2E/DX2                !
 ! D19   D(1,4,9,22)           173.7129         estimate D2E/DX2                !
 ! D20   D(1,4,9,23)            57.4339         estimate D2E/DX2                !
 ! D21   D(1,4,9,24)           -63.3679         estimate D2E/DX2                !
 ! D22   D(1,5,6,10)            92.6929         estimate D2E/DX2                !
 ! D23   D(1,5,6,12)           -22.7032         estimate D2E/DX2                !
 ! D24   D(1,5,6,14)          -142.6849         estimate D2E/DX2                !
 ! D25   D(5,6,10,11)         -177.8678         estimate D2E/DX2                !
 ! D26   D(12,6,10,11)         -55.5479         estimate D2E/DX2                !
 ! D27   D(14,6,10,11)          54.425          estimate D2E/DX2                !
 ! D28   D(5,6,12,13)          148.1496         estimate D2E/DX2                !
 ! D29   D(10,6,12,13)          25.9282         estimate D2E/DX2                !
 ! D30   D(14,6,12,13)         -86.7117         estimate D2E/DX2                !
 ! D31   D(5,6,14,15)          169.9965         estimate D2E/DX2                !
 ! D32   D(10,6,14,15)         -62.6544         estimate D2E/DX2                !
 ! D33   D(12,6,14,15)          45.1618         estimate D2E/DX2                !
 ! D34   D(2,7,19,33)         -156.8425         estimate D2E/DX2                !
 ! D35   D(20,7,19,33)         -33.9627         estimate D2E/DX2                !
 ! D36   D(21,7,19,33)          88.7198         estimate D2E/DX2                !
 ! D37   D(2,7,20,28)           39.0047         estimate D2E/DX2                !
 ! D38   D(19,7,20,28)         -78.0052         estimate D2E/DX2                !
 ! D39   D(21,7,20,28)         159.0451         estimate D2E/DX2                !
 ! D40   D(2,7,21,32)           12.2859         estimate D2E/DX2                !
 ! D41   D(19,7,21,32)         124.7052         estimate D2E/DX2                !
 ! D42   D(20,7,21,32)        -111.7631         estimate D2E/DX2                !
 ! D43   D(3,8,16,30)          -66.936          estimate D2E/DX2                !
 ! D44   D(17,8,16,30)          52.9866         estimate D2E/DX2                !
 ! D45   D(18,8,16,30)         173.2574         estimate D2E/DX2                !
 ! D46   D(3,8,17,31)          -19.3558         estimate D2E/DX2                !
 ! D47   D(16,8,17,31)        -141.4996         estimate D2E/DX2                !
 ! D48   D(18,8,17,31)         102.3883         estimate D2E/DX2                !
 ! D49   D(3,8,18,29)          -84.4645         estimate D2E/DX2                !
 ! D50   D(16,8,18,29)          35.8337         estimate D2E/DX2                !
 ! D51   D(17,8,18,29)         155.5519         estimate D2E/DX2                !
 ! D52   D(4,9,22,26)           52.0376         estimate D2E/DX2                !
 ! D53   D(23,9,22,26)         168.99           estimate D2E/DX2                !
 ! D54   D(24,9,22,26)         -71.4318         estimate D2E/DX2                !
 ! D55   D(4,9,23,25)           59.2735         estimate D2E/DX2                !
 ! D56   D(22,9,23,25)         -57.3378         estimate D2E/DX2                !
 ! D57   D(24,9,23,25)        -178.1643         estimate D2E/DX2                !
 ! D58   D(4,9,24,27)           54.0597         estimate D2E/DX2                !
 ! D59   D(22,9,24,27)         175.1468         estimate D2E/DX2                !
 ! D60   D(23,9,24,27)         -66.3256         estimate D2E/DX2                !
 ! D61   D(6,10,11,34)        -136.8774         estimate D2E/DX2                !
 ! D62   D(6,10,11,36)         -27.803          estimate D2E/DX2                !
 ! D63   D(6,10,11,38)         113.3903         estimate D2E/DX2                !
 ! D64   D(10,11,34,35)        105.9345         estimate D2E/DX2                !
 ! D65   D(36,11,34,35)         -6.4255         estimate D2E/DX2                !
 ! D66   D(38,11,34,35)       -129.8336         estimate D2E/DX2                !
 ! D67   D(10,11,36,37)         37.7965         estimate D2E/DX2                !
 ! D68   D(34,11,36,37)        147.5766         estimate D2E/DX2                !
 ! D69   D(38,11,36,37)       -103.5877         estimate D2E/DX2                !
 ! D70   D(10,11,38,39)        114.2535         estimate D2E/DX2                !
 ! D71   D(34,11,38,39)          1.8858         estimate D2E/DX2                !
 ! D72   D(36,11,38,39)       -109.0653         estimate D2E/DX2                !
 ! D73   D(6,12,13,46)         -23.7698         estimate D2E/DX2                !
 ! D74   D(6,12,13,48)          93.9284         estimate D2E/DX2                !
 ! D75   D(6,12,13,50)        -145.22           estimate D2E/DX2                !
 ! D76   D(12,13,46,47)       -123.8168         estimate D2E/DX2                !
 ! D77   D(48,13,46,47)        118.9433         estimate D2E/DX2                !
 ! D78   D(50,13,46,47)         -7.9564         estimate D2E/DX2                !
 ! D79   D(12,13,48,49)        115.045          estimate D2E/DX2                !
 ! D80   D(46,13,48,49)       -130.2419         estimate D2E/DX2                !
 ! D81   D(50,13,48,49)         -2.0625         estimate D2E/DX2                !
 ! D82   D(12,13,50,51)          3.8976         estimate D2E/DX2                !
 ! D83   D(46,13,50,51)       -111.4306         estimate D2E/DX2                !
 ! D84   D(48,13,50,51)        122.8395         estimate D2E/DX2                !
 ! D85   D(6,14,15,40)           2.4015         estimate D2E/DX2                !
 ! D86   D(6,14,15,42)         119.4236         estimate D2E/DX2                !
 ! D87   D(6,14,15,44)        -116.2547         estimate D2E/DX2                !
 ! D88   D(14,15,40,41)        -80.6706         estimate D2E/DX2                !
 ! D89   D(42,15,40,41)        161.2974         estimate D2E/DX2                !
 ! D90   D(44,15,40,41)         36.3817         estimate D2E/DX2                !
 ! D91   D(14,15,42,43)        104.4332         estimate D2E/DX2                !
 ! D92   D(40,15,42,43)       -141.0357         estimate D2E/DX2                !
 ! D93   D(44,15,42,43)        -17.3231         estimate D2E/DX2                !
 ! D94   D(14,15,44,45)         -4.8196         estimate D2E/DX2                !
 ! D95   D(40,15,44,45)       -119.5615         estimate D2E/DX2                !
 ! D96   D(42,15,44,45)        117.9003         estimate D2E/DX2                !
 --------------------------------------------------------------------------------
 Trust Radius=3.00D-01 FncErr=1.00D-07 GrdErr=1.00D-06 EigMax=2.50D+02 EigMin=1.00D-04
 Number of steps in this run=    229 maximum allowed number of steps=    306.
 GradGradGradGradGradGradGradGradGradGradGradGradGradGradGradGradGradGrad

 Stoichiometry    H18O25Si4Zr4
 Framework group  C1[X(H18O25Si4Zr4)]
 Deg. of freedom   147
 Full point group                 C1      NOp   1
 Largest Abelian subgroup         C1      NOp   1
 Largest concise Abelian subgroup C1      NOp   1
                         Standard orientation:                         
 ---------------------------------------------------------------------
 Center     Atomic      Atomic             Coordinates (Angstroms)
 Number     Number       Type             X           Y           Z
 ---------------------------------------------------------------------
      1         14           0       -2.741911    0.502454   -0.849562
      2          8           0       -2.574741   -0.048332    0.685619
      3          8           0       -3.694209    1.854119   -0.821898
      4          8           0       -3.472835   -0.668392   -1.732875
      5          8           0       -1.262284    0.870417   -1.405010
      6         40           0        0.603927    0.562920   -0.721356
      7         14           0       -2.834259   -0.371078    2.260418
      8         14           0       -5.261837    2.110764   -0.377838
      9         14           0       -4.644030   -1.808981   -1.432211
     10          8           0        1.408747   -1.060151   -1.387825
     11         40           0        3.055577   -2.254682   -1.324469
     12          8           0        0.696202    0.271318    1.279372
     13         40           0        1.915921   -0.815243    2.383819
     14          8           0        1.843047    2.054171   -1.068677
     15         40           0        3.668129    2.667048   -0.579295
     16          8           0       -6.308161    1.750053   -1.609461
     17          8           0       -5.405419    3.682002    0.061595
     18          8           0       -5.696583    1.094283    0.853468
     19          8           0       -3.385485   -1.944755    2.259493
     20          8           0       -3.903458    0.636190    2.970261
     21          8           0       -1.371668   -0.271122    3.021570
     22          8           0       -5.007541   -2.548194   -2.849186
     23          8           0       -6.019234   -1.030152   -0.906190
     24          8           0       -4.175565   -2.886467   -0.309600
     25          1           0       -6.387696   -0.383953   -1.531121
     26          1           0       -4.259938   -2.898200   -3.345753
     27          1           0       -3.859099   -2.592469    0.564634
     28          1           0       -4.662710    0.872203    2.399298
     29          1           0       -5.982232    0.222372    0.507451
     30          1           0       -6.271015    2.318237   -2.386983
     31          1           0       -4.580888    4.128179    0.283281
     32          1           0       -0.713538    0.141197    2.429888
     33          1           0       -3.912637   -2.221702    3.017210
     34          8           0        3.367017   -2.746303   -3.204197
     35          1           0        4.018769   -2.475482   -3.858189
     36          8           0        4.584792   -1.129579   -0.901990
     37          1           0        4.751616   -0.358847   -0.322729
     38          8           0        2.927964   -4.113687   -0.515789
     39          1           0        3.038776   -4.932170   -1.011824
     40          8           0        4.396941    1.224474    0.579803
     41          1           0        4.260943    1.030930    1.531284
     42          8           0        4.784876    2.817501   -2.177250
     43          1           0        5.190083    3.417017   -2.808259
     44          8           0        3.517978    4.342062    0.404436
     45          1           0        3.025729    5.081069    0.766844
     46          8           0        2.613495   -2.229831    1.153294
     47          1           0        2.652432   -3.206610    1.115453
     48          8           0        3.427312    0.336606    3.019366
     49          1           0        3.703481    0.633077    3.893455
     50          8           0        0.847054   -1.491744    3.855700
     51          1           0       -0.111659   -1.356694    3.964615
 ---------------------------------------------------------------------
 Rotational constants (GHZ):           0.0876262           0.0393627           0.0370335
 General basis read from cards:  (5D, 7F)
 ======================================================================================================
                                       Pseudopotential Parameters
 ======================================================================================================
  Center     Atomic      Valence      Angular      Power
  Number     Number     Electrons     Momentum     of R      Exponent        Coefficient   SO-Coeffient
 ======================================================================================================
    1         14
                                   No pseudopotential on this center.
    2          8
                                   No pseudopotential on this center.
    3          8
                                   No pseudopotential on this center.
    4          8
                                   No pseudopotential on this center.
    5          8
                                   No pseudopotential on this center.
    6         40           12
                                      F and up 
                                                     0      645.9321873       -0.04258430    0.00000000
                                                     1      134.7547401      -20.22224090    0.00000000
                                                     2       42.3074619     -101.86951720    0.00000000
                                                     2       12.0003227      -41.61957840    0.00000000
                                                     2        4.1260454       -4.69861600    0.00000000
                                      S - F
                                                     0      117.6251862        2.79105590    0.00000000
                                                     1       22.9646089       41.94894590    0.00000000
                                                     2        4.5225298       67.72718660    0.00000000
                                      P - F
                                                     0       47.1953145        4.99111440    0.00000000
                                                     1       48.0356033       20.71931720    0.00000000
                                                     2       19.4541456      195.58677580    0.00000000
                                                     2        4.0512875       48.28771760    0.00000000
                                      D - F
                                                     0       79.9073983        3.00492260    0.00000000
                                                     1       45.8263798       25.93779890    0.00000000
                                                     2       26.9903522      125.12449340    0.00000000
                                                     2        9.6835718       70.76340220    0.00000000
                                                     2        2.7995666       15.04928220    0.00000000
    7         14
                                   No pseudopotential on this center.
    8         14
                                   No pseudopotential on this center.
    9         14
                                   No pseudopotential on this center.
   10          8
                                   No pseudopotential on this center.
   11         40           12
                                      F and up 
                                                     0      645.9321873       -0.04258430    0.00000000
                                                     1      134.7547401      -20.22224090    0.00000000
                                                     2       42.3074619     -101.86951720    0.00000000
                                                     2       12.0003227      -41.61957840    0.00000000
                                                     2        4.1260454       -4.69861600    0.00000000
                                      S - F
                                                     0      117.6251862        2.79105590    0.00000000
                                                     1       22.9646089       41.94894590    0.00000000
                                                     2        4.5225298       67.72718660    0.00000000
                                      P - F
                                                     0       47.1953145        4.99111440    0.00000000
                                                     1       48.0356033       20.71931720    0.00000000
                                                     2       19.4541456      195.58677580    0.00000000
                                                     2        4.0512875       48.28771760    0.00000000
                                      D - F
                                                     0       79.9073983        3.00492260    0.00000000
                                                     1       45.8263798       25.93779890    0.00000000
                                                     2       26.9903522      125.12449340    0.00000000
                                                     2        9.6835718       70.76340220    0.00000000
                                                     2        2.7995666       15.04928220    0.00000000
   12          8
                                   No pseudopotential on this center.
   13         40           12
                                      F and up 
                                                     0      645.9321873       -0.04258430    0.00000000
                                                     1      134.7547401      -20.22224090    0.00000000
                                                     2       42.3074619     -101.86951720    0.00000000
                                                     2       12.0003227      -41.61957840    0.00000000
                                                     2        4.1260454       -4.69861600    0.00000000
                                      S - F
                                                     0      117.6251862        2.79105590    0.00000000
                                                     1       22.9646089       41.94894590    0.00000000
                                                     2        4.5225298       67.72718660    0.00000000
                                      P - F
                                                     0       47.1953145        4.99111440    0.00000000
                                                     1       48.0356033       20.71931720    0.00000000
                                                     2       19.4541456      195.58677580    0.00000000
                                                     2        4.0512875       48.28771760    0.00000000
                                      D - F
                                                     0       79.9073983        3.00492260    0.00000000
                                                     1       45.8263798       25.93779890    0.00000000
                                                     2       26.9903522      125.12449340    0.00000000
                                                     2        9.6835718       70.76340220    0.00000000
                                                     2        2.7995666       15.04928220    0.00000000
   14          8
                                   No pseudopotential on this center.
   15         40           12
                                      F and up 
                                                     0      645.9321873       -0.04258430    0.00000000
                                                     1      134.7547401      -20.22224090    0.00000000
                                                     2       42.3074619     -101.86951720    0.00000000
                                                     2       12.0003227      -41.61957840    0.00000000
                                                     2        4.1260454       -4.69861600    0.00000000
                                      S - F
                                                     0      117.6251862        2.79105590    0.00000000
                                                     1       22.9646089       41.94894590    0.00000000
                                                     2        4.5225298       67.72718660    0.00000000
                                      P - F
                                                     0       47.1953145        4.99111440    0.00000000
                                                     1       48.0356033       20.71931720    0.00000000
                                                     2       19.4541456      195.58677580    0.00000000
                                                     2        4.0512875       48.28771760    0.00000000
                                      D - F
                                                     0       79.9073983        3.00492260    0.00000000
                                                     1       45.8263798       25.93779890    0.00000000
                                                     2       26.9903522      125.12449340    0.00000000
                                                     2        9.6835718       70.76340220    0.00000000
                                                     2        2.7995666       15.04928220    0.00000000
   16          8
                                   No pseudopotential on this center.
   17          8
                                   No pseudopotential on this center.
   18          8
                                   No pseudopotential on this center.
   19          8
                                   No pseudopotential on this center.
   20          8
                                   No pseudopotential on this center.
   21          8
                                   No pseudopotential on this center.
   22          8
                                   No pseudopotential on this center.
   23          8
                                   No pseudopotential on this center.
   24          8
                                   No pseudopotential on this center.
   25          1
                                   No pseudopotential on this center.
   26          1
                                   No pseudopotential on this center.
   27          1
                                   No pseudopotential on this center.
   28          1
                                   No pseudopotential on this center.
   29          1
                                   No pseudopotential on this center.
   30          1
                                   No pseudopotential on this center.
   31          1
                                   No pseudopotential on this center.
   32          1
                                   No pseudopotential on this center.
   33          1
                                   No pseudopotential on this center.
   34          8
                                   No pseudopotential on this center.
   35          1
                                   No pseudopotential on this center.
   36          8
                                   No pseudopotential on this center.
   37          1
                                   No pseudopotential on this center.
   38          8
                                   No pseudopotential on this center.
   39          1
                                   No pseudopotential on this center.
   40          8
                                   No pseudopotential on this center.
   41          1
                                   No pseudopotential on this center.
   42          8
                                   No pseudopotential on this center.
   43          1
                                   No pseudopotential on this center.
   44          8
                                   No pseudopotential on this center.
   45          1
                                   No pseudopotential on this center.
   46          8
                                   No pseudopotential on this center.
   47          1
                                   No pseudopotential on this center.
   48          8
                                   No pseudopotential on this center.
   49          1
                                   No pseudopotential on this center.
   50          8
                                   No pseudopotential on this center.
   51          1
                                   No pseudopotential on this center.
 ======================================================================================================
 There are   637 symmetry adapted cartesian basis functions of A   symmetry.
 There are   600 symmetry adapted basis functions of A   symmetry.
   600 basis functions,  1230 primitive gaussians,   637 cartesian basis functions
   161 alpha electrons      161 beta electrons
       nuclear repulsion energy      5693.0663438162 Hartrees.
 NAtoms=   51 NActive=   51 NUniq=   51 SFac= 1.00D+00 NAtFMM=   60 NAOKFM=F Big=F
 Integral buffers will be    131072 words long.
 Raffenetti 2 integral format.
 Two-electron integral symmetry is turned on.
 One-electron integrals computed using PRISM.
   1 Symmetry operations used in ECPInt.
 ECPInt:  NShTT=   21321 NPrTT=  126439 LenC2=   15487 LenP2D=   52125.
 LDataN:  DoStor=T MaxTD1= 5 Len=  102
 Number of processors reduced to  12 by ecpmxn.
 NBasis=   600 RedAO= T EigKep=  2.62D-03  NBF=   600
 NBsUse=   600 1.00D-06 EigRej= -1.00D+00 NBFU=   600
 Defaulting to unpruned grid for atomic number  40.
 Defaulting to unpruned grid for atomic number  40.
 Defaulting to unpruned grid for atomic number  40.
 ExpMin= 2.43D-02 ExpMax= 1.61D+04 ExpMxC= 2.43D+03 IAcc=3 IRadAn=         5 AccDes= 0.00D+00
 Harris functional with IExCor=  402 and IRadAn=       5 diagonalized for initial guess.
 HarFok:  IExCor=  402 AccDes= 0.00D+00 IRadAn=         5 IDoV= 1 UseB2=F ITyADJ=14
 ICtDFT=  3500011 ScaDFX=  1.000000  1.000000  1.000000  1.000000
 Defaulting to unpruned grid for atomic number  40.
 FoFCou: FMM=F IPFlag=           0 FMFlag=      100000 FMFlg1=           0
         NFxFlg=           0 DoJE=T BraDBF=F KetDBF=T FulRan=T
         wScrn=  0.000000 ICntrl=       500 IOpCl=  0 I1Cent=   200000004 NGrid=           0
         NMat0=    1 NMatS0=      1 NMatT0=    0 NMatD0=    1 NMtDS0=    0 NMtDT0=    0
 Petite list used in FoFCou.
 Requested convergence on RMS density matrix=1.00D-08 within 128 cycles.
 Requested convergence on MAX density matrix=1.00D-06.
 Requested convergence on             energy=1.00D-06.
 No special actions if energy rises.
 Defaulting to unpruned grid for atomic number  40.
 Defaulting to unpruned grid for atomic number  40.
 Defaulting to unpruned grid for atomic number  40.
 Defaulting to unpruned grid for atomic number  40.
 Defaulting to unpruned grid for atomic number  40.
 Defaulting to unpruned grid for atomic number  40.
 Defaulting to unpruned grid for atomic number  40.
 Defaulting to unpruned grid for atomic number  40.
 Defaulting to unpruned grid for atomic number  40.
 Defaulting to unpruned grid for atomic number  40.
 Defaulting to unpruned grid for atomic number  40.
 Defaulting to unpruned grid for atomic number  40.
 Defaulting to unpruned grid for atomic number  40.
 Defaulting to unpruned grid for atomic number  40.
 Defaulting to unpruned grid for atomic number  40.
 Defaulting to unpruned grid for atomic number  40.
 SCF Done:  E(RB3LYP) =  -3237.56538523     A.U. after   17 cycles
            NFock= 17  Conv=0.43D-08     -V/T= 2.0473

 **********************************************************************

            Population analysis using the SCF Density.

 **********************************************************************

 Orbital symmetries:
       Occupied  (A) (A) (A) (A) (A) (A) (A) (A) (A) (A) (A) (A)
                 (A) (A) (A) (A) (A) (A) (A) (A) (A) (A) (A) (A)
                 (A) (A) (A) (A) (A) (A) (A) (A) (A) (A) (A) (A)
                 (A) (A) (A) (A) (A) (A) (A) (A) (A) (A) (A) (A)
                 (A) (A) (A) (A) (A) (A) (A) (A) (A) (A) (A) (A)
                 (A) (A) (A) (A) (A) (A) (A) (A) (A) (A) (A) (A)
                 (A) (A) (A) (A) (A) (A) (A) (A) (A) (A) (A) (A)
                 (A) (A) (A) (A) (A) (A) (A) (A) (A) (A) (A) (A)
                 (A) (A) (A) (A) (A) (A) (A) (A) (A) (A) (A) (A)
                 (A) (A) (A) (A) (A) (A) (A) (A) (A) (A) (A) (A)
                 (A) (A) (A) (A) (A) (A) (A) (A) (A) (A) (A) (A)
                 (A) (A) (A) (A) (A) (A) (A) (A) (A) (A) (A) (A)
                 (A) (A) (A) (A) (A) (A) (A) (A) (A) (A) (A) (A)
                 (A) (A) (A) (A) (A)
       Virtual   (A) (A) (A) (A) (A) (A) (A) (A) (A) (A) (A) (A)
                 (A) (A) (A) (A) (A) (A) (A) (A) (A) (A) (A) (A)
                 (A) (A) (A) (A) (A) (A) (A) (A) (A) (A) (A) (A)
                 (A) (A) (A) (A) (A) (A) (A) (A) (A) (A) (A) (A)
                 (A) (A) (A) (A) (A) (A) (A) (A) (A) (A) (A) (A)
                 (A) (A) (A) (A) (A) (A) (A) (A) (A) (A) (A) (A)
                 (A) (A) (A) (A) (A) (A) (A) (A) (A) (A) (A) (A)
                 (A) (A) (A) (A) (A) (A) (A) (A) (A) (A) (A) (A)
                 (A) (A) (A) (A) (A) (A) (A) (A) (A) (A) (A) (A)
                 (A) (A) (A) (A) (A) (A) (A) (A) (A) (A) (A) (A)
                 (A) (A) (A) (A) (A) (A) (A) (A) (A) (A) (A) (A)
                 (A) (A) (A) (A) (A) (A) (A) (A) (A) (A) (A) (A)
                 (A) (A) (A) (A) (A) (A) (A) (A) (A) (A) (A) (A)
                 (A) (A) (A) (A) (A) (A) (A) (A) (A) (A) (A) (A)
                 (A) (A) (A) (A) (A) (A) (A) (A) (A) (A) (A) (A)
                 (A) (A) (A) (A) (A) (A) (A) (A) (A) (A) (A) (A)
                 (A) (A) (A) (A) (A) (A) (A) (A) (A) (A) (A) (A)
                 (A) (A) (A) (A) (A) (A) (A) (A) (A) (A) (A) (A)
                 (A) (A) (A) (A) (A) (A) (A) (A) (A) (A) (A) (A)
                 (A) (A) (A) (A) (A) (A) (A) (A) (A) (A) (A) (A)
                 (A) (A) (A) (A) (A) (A) (A) (A) (A) (A) (A) (A)
                 (A) (A) (A) (A) (A) (A) (A) (A) (A) (A) (A) (A)
                 (A) (A) (A) (A) (A) (A) (A) (A) (A) (A) (A) (A)
                 (A) (A) (A) (A) (A) (A) (A) (A) (A) (A) (A) (A)
                 (A) (A) (A) (A) (A) (A) (A) (A) (A) (A) (A) (A)
                 (A) (A) (A) (A) (A) (A) (A) (A) (A) (A) (A) (A)
                 (A) (A) (A) (A) (A) (A) (A) (A) (A) (A) (A) (A)
                 (A) (A) (A) (A) (A) (A) (A) (A) (A) (A) (A) (A)
                 (A) (A) (A) (A) (A) (A) (A) (A) (A) (A) (A) (A)
                 (A) (A) (A) (A) (A) (A) (A) (A) (A) (A) (A) (A)
                 (A) (A) (A) (A) (A) (A) (A) (A) (A) (A) (A) (A)
                 (A) (A) (A) (A) (A) (A) (A) (A) (A) (A) (A) (A)
                 (A) (A) (A) (A) (A) (A) (A) (A) (A) (A) (A) (A)
                 (A) (A) (A) (A) (A) (A) (A) (A) (A) (A) (A) (A)
                 (A) (A) (A) (A) (A) (A) (A) (A) (A) (A) (A) (A)
                 (A) (A) (A) (A) (A) (A) (A) (A) (A) (A) (A) (A)
                 (A) (A) (A) (A) (A) (A) (A)
 The electronic state is 1-A.
 Alpha  occ. eigenvalues --  -66.22115 -66.21893 -66.21430 -66.20244 -19.17226
 Alpha  occ. eigenvalues --  -19.17077 -19.16399 -19.16341 -19.16194 -19.15975
 Alpha  occ. eigenvalues --  -19.15925 -19.15765 -19.15599 -19.15555 -19.15279
 Alpha  occ. eigenvalues --  -19.15276 -19.15251 -19.14727 -19.14635 -19.14376
 Alpha  occ. eigenvalues --  -19.14314 -19.14310 -19.14297 -19.14110 -19.13428
 Alpha  occ. eigenvalues --  -19.13246 -19.12579 -19.12122 -19.11638  -5.36125
 Alpha  occ. eigenvalues --   -5.36086  -5.35623  -5.34454  -3.72117  -3.72088
 Alpha  occ. eigenvalues --   -3.72065  -3.72044  -3.72034  -3.71977  -3.71685
 Alpha  occ. eigenvalues --   -3.71539  -3.71465  -3.70448  -3.70401  -3.70329
 Alpha  occ. eigenvalues --   -2.08186  -2.07003  -2.06829  -2.05089  -1.29223
 Alpha  occ. eigenvalues --   -1.28905  -1.28442  -1.28024  -1.27807  -1.27712
 Alpha  occ. eigenvalues --   -1.27212  -1.27195  -1.26780  -1.25732  -1.25481
 Alpha  occ. eigenvalues --   -1.25145  -1.05353  -1.04431  -1.03133  -1.02018
 Alpha  occ. eigenvalues --   -1.01506  -1.01233  -1.01111  -0.99802  -0.99587
 Alpha  occ. eigenvalues --   -0.98852  -0.98606  -0.98252  -0.97995  -0.97380
 Alpha  occ. eigenvalues --   -0.96698  -0.95861  -0.95490  -0.95144  -0.94970
 Alpha  occ. eigenvalues --   -0.93889  -0.93666  -0.92088  -0.91468  -0.89574
 Alpha  occ. eigenvalues --   -0.88478  -0.61770  -0.59665  -0.58858  -0.55990
 Alpha  occ. eigenvalues --   -0.54470  -0.53684  -0.52406  -0.52196  -0.51544
 Alpha  occ. eigenvalues --   -0.51332  -0.51072  -0.51009  -0.50839  -0.50328
 Alpha  occ. eigenvalues --   -0.50137  -0.49045  -0.48883  -0.47747  -0.46761
 Alpha  occ. eigenvalues --   -0.45659  -0.45573  -0.44767  -0.42831  -0.42129
 Alpha  occ. eigenvalues --   -0.41648  -0.41456  -0.40703  -0.40530  -0.40306
 Alpha  occ. eigenvalues --   -0.39747  -0.39632  -0.39259  -0.39000  -0.38459
 Alpha  occ. eigenvalues --   -0.37875  -0.37515  -0.37462  -0.37274  -0.36873
 Alpha  occ. eigenvalues --   -0.36716  -0.36127  -0.36047  -0.35833  -0.35660
 Alpha  occ. eigenvalues --   -0.35413  -0.35301  -0.35179  -0.34991  -0.34959
 Alpha  occ. eigenvalues --   -0.34680  -0.34263  -0.34205  -0.34071  -0.33780
 Alpha  occ. eigenvalues --   -0.33508  -0.33461  -0.33356  -0.33187  -0.33050
 Alpha  occ. eigenvalues --   -0.32862  -0.32621  -0.32558  -0.32238  -0.32012
 Alpha  occ. eigenvalues --   -0.31826  -0.31626  -0.31501  -0.31161  -0.31025
 Alpha  occ. eigenvalues --   -0.30821  -0.30789  -0.30204  -0.29539  -0.29133
 Alpha  occ. eigenvalues --   -0.28613
 Alpha virt. eigenvalues --   -0.05207  -0.04753  -0.04472  -0.03333  -0.02868
 Alpha virt. eigenvalues --   -0.02666  -0.01879  -0.01570  -0.01335  -0.01065
 Alpha virt. eigenvalues --   -0.00650  -0.00602  -0.00354   0.00039   0.00510
 Alpha virt. eigenvalues --    0.00683   0.00919   0.01438   0.01557   0.01802
 Alpha virt. eigenvalues --    0.02328   0.02484   0.02802   0.02956   0.03236
 Alpha virt. eigenvalues --    0.03817   0.04083   0.04236   0.04991   0.05465
 Alpha virt. eigenvalues --    0.05811   0.05928   0.06229   0.06592   0.07115
 Alpha virt. eigenvalues --    0.08117   0.08309   0.08668   0.09733   0.10266
 Alpha virt. eigenvalues --    0.10566   0.11299   0.11822   0.12529   0.12872
 Alpha virt. eigenvalues --    0.13427   0.13915   0.14575   0.15200   0.15324
 Alpha virt. eigenvalues --    0.15891   0.16275   0.16583   0.16928   0.17212
 Alpha virt. eigenvalues --    0.17623   0.18069   0.18202   0.18577   0.18849
 Alpha virt. eigenvalues --    0.19181   0.19426   0.19800   0.20417   0.20916
 Alpha virt. eigenvalues --    0.21126   0.21301   0.21562   0.22237   0.22342
 Alpha virt. eigenvalues --    0.22608   0.22860   0.23147   0.23301   0.24209
 Alpha virt. eigenvalues --    0.24271   0.24478   0.24988   0.25221   0.25680
 Alpha virt. eigenvalues --    0.26134   0.26749   0.26863   0.27493   0.27828
 Alpha virt. eigenvalues --    0.28356   0.28810   0.29401   0.30061   0.30105
 Alpha virt. eigenvalues --    0.30549   0.31173   0.31801   0.32063   0.32629
 Alpha virt. eigenvalues --    0.33499   0.34119   0.34193   0.34783   0.35180
 Alpha virt. eigenvalues --    0.36111   0.36702   0.36982   0.37547   0.38188
 Alpha virt. eigenvalues --    0.38553   0.39520   0.41085   0.41250   0.41890
 Alpha virt. eigenvalues --    0.42353   0.44599   0.44978   0.46526   0.46807
 Alpha virt. eigenvalues --    0.49214   0.50098   0.52155   0.55450   0.56344
 Alpha virt. eigenvalues --    0.58052   0.59547   0.60409   0.64626   0.66498
 Alpha virt. eigenvalues --    0.67725   0.76466   0.76805   0.78686   0.79576
 Alpha virt. eigenvalues --    0.80046   0.80232   0.81059   0.81359   0.82184
 Alpha virt. eigenvalues --    0.83715   0.84066   0.84725   0.85838   0.86719
 Alpha virt. eigenvalues --    0.87044   0.88040   0.89046   0.89618   0.90318
 Alpha virt. eigenvalues --    0.90777   0.91789   0.92118   0.92711   0.93170
 Alpha virt. eigenvalues --    0.93282   0.94179   0.94554   0.94887   0.95751
 Alpha virt. eigenvalues --    0.96274   0.96627   0.96720   0.97465   0.97526
 Alpha virt. eigenvalues --    0.97692   0.98333   0.98357   0.98718   0.99207
 Alpha virt. eigenvalues --    0.99357   1.00354   1.00769   1.01006   1.01440
 Alpha virt. eigenvalues --    1.02528   1.03062   1.03501   1.03907   1.04229
 Alpha virt. eigenvalues --    1.04843   1.05703   1.05898   1.06399   1.06868
 Alpha virt. eigenvalues --    1.07491   1.07962   1.08222   1.08805   1.08948
 Alpha virt. eigenvalues --    1.09587   1.09813   1.10222   1.10965   1.11341
 Alpha virt. eigenvalues --    1.12197   1.13045   1.13313   1.14033   1.14670
 Alpha virt. eigenvalues --    1.15275   1.16354   1.16480   1.16741   1.17606
 Alpha virt. eigenvalues --    1.17640   1.18353   1.18769   1.19092   1.19452
 Alpha virt. eigenvalues --    1.19809   1.20493   1.21062   1.21562   1.21783
 Alpha virt. eigenvalues --    1.22234   1.23073   1.23303   1.24061   1.24607
 Alpha virt. eigenvalues --    1.25838   1.26690   1.27039   1.27618   1.28215
 Alpha virt. eigenvalues --    1.29144   1.29770   1.30660   1.31199   1.32135
 Alpha virt. eigenvalues --    1.33823   1.34253   1.35317   1.36958   1.37975
 Alpha virt. eigenvalues --    1.42369   1.43532   1.44827   1.45475   1.47227
 Alpha virt. eigenvalues --    1.47772   1.49148   1.50267   1.50906   1.51094
 Alpha virt. eigenvalues --    1.51946   1.52324   1.53777   1.53910   1.54089
 Alpha virt. eigenvalues --    1.55034   1.55566   1.56030   1.56232   1.56619
 Alpha virt. eigenvalues --    1.56932   1.57202   1.57806   1.58304   1.58497
 Alpha virt. eigenvalues --    1.58613   1.58991   1.59952   1.60244   1.60671
 Alpha virt. eigenvalues --    1.61104   1.62023   1.62324   1.62601   1.62833
 Alpha virt. eigenvalues --    1.63206   1.63776   1.64073   1.64742   1.65334
 Alpha virt. eigenvalues --    1.65684   1.66028   1.66613   1.66835   1.67120
 Alpha virt. eigenvalues --    1.67585   1.68251   1.68688   1.70361   1.70873
 Alpha virt. eigenvalues --    1.71167   1.71797   1.72038   1.72518   1.72865
 Alpha virt. eigenvalues --    1.73442   1.73507   1.74611   1.74820   1.75392
 Alpha virt. eigenvalues --    1.75931   1.76491   1.77005   1.77546   1.77770
 Alpha virt. eigenvalues --    1.78284   1.78481   1.78557   1.78918   1.79464
 Alpha virt. eigenvalues --    1.79683   1.80527   1.80931   1.81117   1.81529
 Alpha virt. eigenvalues --    1.81665   1.82189   1.82299   1.82840   1.83018
 Alpha virt. eigenvalues --    1.83490   1.83680   1.84262   1.85150   1.85562
 Alpha virt. eigenvalues --    1.85725   1.86253   1.86365   1.86712   1.86916
 Alpha virt. eigenvalues --    1.87070   1.87637   1.87960   1.88679   1.89084
 Alpha virt. eigenvalues --    1.89790   1.90402   1.91012   1.91966   1.92664
 Alpha virt. eigenvalues --    1.93096   1.93290   1.94505   1.95132   1.97122
 Alpha virt. eigenvalues --    1.97497   1.98323   1.99380   2.01179   2.01627
 Alpha virt. eigenvalues --    2.04300   2.05404   2.08733   2.09144   2.11673
 Alpha virt. eigenvalues --    2.15033   2.19091   2.31816   2.33717   2.34199
 Alpha virt. eigenvalues --    2.34439   2.35018   2.35121   2.36266   2.36663
 Alpha virt. eigenvalues --    2.36981   2.37930   2.38391   2.39690   2.39817
 Alpha virt. eigenvalues --    2.40679   2.41030   2.42425   2.44587   2.44984
 Alpha virt. eigenvalues --    2.45640   2.46525   2.47954   2.49606   2.52210
 Alpha virt. eigenvalues --    2.55819   2.57617   2.58355   2.59404   2.60137
 Alpha virt. eigenvalues --    2.60194   2.60905   2.61667   2.61736   2.62065
 Alpha virt. eigenvalues --    2.62459   2.62501   2.62789   2.63020   2.63124
 Alpha virt. eigenvalues --    2.63228   2.63530   2.63812   2.64148   2.64580
 Alpha virt. eigenvalues --    2.64612   2.65538   2.65580   2.65725   2.65971
 Alpha virt. eigenvalues --    2.66960   2.67479   2.68166   2.68616   2.69435
 Alpha virt. eigenvalues --    2.69632   2.70335   2.71712   2.73229   2.74049
 Alpha virt. eigenvalues --    2.74702   2.74828   2.76869   2.77030   2.77549
 Alpha virt. eigenvalues --    2.77819   2.80110   2.82270   2.83064   2.84760
 Alpha virt. eigenvalues --    2.86726   2.93493   3.40495   3.40724   3.40903
 Alpha virt. eigenvalues --    3.41386   3.41980   3.43368   3.43835   3.45154
 Alpha virt. eigenvalues --    3.46093   3.46908   3.47481   3.47852   3.49288
 Alpha virt. eigenvalues --    3.49859   3.52175   3.54422   3.54950   3.55426
 Alpha virt. eigenvalues --    4.73442   6.24980   6.66243   7.77861
          Condensed to atoms (all electrons):
 Mulliken charges:
               1
     1  Si   1.295610
     2  O   -0.649927
     3  O   -0.649449
     4  O   -0.648330
     5  O   -0.753659
     6  Zr   1.613251
     7  Si   1.127793
     8  Si   1.163690
     9  Si   1.136243
    10  O   -0.820773
    11  Zr   1.494079
    12  O   -0.879283
    13  Zr   1.590396
    14  O   -0.827927
    15  Zr   1.550269
    16  O   -0.626911
    17  O   -0.574095
    18  O   -0.666409
    19  O   -0.626447
    20  O   -0.609834
    21  O   -0.657895
    22  O   -0.578030
    23  O   -0.653135
    24  O   -0.618467
    25  H    0.355033
    26  H    0.334254
    27  H    0.367351
    28  H    0.370477
    29  H    0.365548
    30  H    0.337937
    31  H    0.336693
    32  H    0.395273
    33  H    0.344409
    34  O   -0.695183
    35  H    0.332523
    36  O   -0.706835
    37  H    0.365779
    38  O   -0.748999
    39  H    0.331337
    40  O   -0.763469
    41  H    0.371922
    42  O   -0.694069
    43  H    0.334240
    44  O   -0.699058
    45  H    0.335423
    46  O   -0.762503
    47  H    0.380761
    48  O   -0.742671
    49  H    0.340301
    50  O   -0.690932
    51  H    0.373697
 Sum of Mulliken charges =  -0.00000
 Mulliken charges with hydrogens summed into heavy atoms:
               1
     1  Si   1.295610
     2  O   -0.649927
     3  O   -0.649449
     4  O   -0.648330
     5  O   -0.753659
     6  Zr   1.613251
     7  Si   1.127793
     8  Si   1.163690
     9  Si   1.136243
    10  O   -0.820773
    11  Zr   1.494079
    12  O   -0.879283
    13  Zr   1.590396
    14  O   -0.827927
    15  Zr   1.550269
    16  O   -0.288974
    17  O   -0.237403
    18  O   -0.300861
    19  O   -0.282038
    20  O   -0.239358
    21  O   -0.262621
    22  O   -0.243776
    23  O   -0.298102
    24  O   -0.251116
    34  O   -0.362660
    36  O   -0.341056
    38  O   -0.417662
    40  O   -0.391547
    42  O   -0.359829
    44  O   -0.363635
    46  O   -0.381742
    48  O   -0.402370
    50  O   -0.317235
 Electronic spatial extent (au):  <R**2>=          24729.2358
 Charge=              0.0000 electrons
 Dipole moment (field-independent basis, Debye):
    X=              1.9339    Y=              4.5193    Z=              0.7358  Tot=              4.9704
 Quadrupole moment (field-independent basis, Debye-Ang):
   XX=           -293.9780   YY=           -258.3759   ZZ=           -261.7113
   XY=              3.3525   XZ=              6.8406   YZ=             -8.0652
 Traceless Quadrupole moment (field-independent basis, Debye-Ang):
   XX=            -22.6230   YY=             12.9792   ZZ=              9.6438
   XY=              3.3525   XZ=              6.8406   YZ=             -8.0652
 Octapole moment (field-independent basis, Debye-Ang**2):
  XXX=            318.5027  YYY=            101.4979  ZZZ=            -40.0840  XYY=            157.3274
  XXY=             67.9434  XXZ=            -37.3750  XZZ=            118.3460  YZZ=              8.0687
  YYZ=            -19.3963  XYZ=             57.2524
 Hexadecapole moment (field-independent basis, Debye-Ang**3):
 XXXX=         -22271.9282 YYYY=          -5691.8345 ZZZZ=          -4825.2243 XXXY=            105.1773
 XXXZ=            -16.8209 YYYX=             32.7209 YYYZ=             19.5924 ZZZX=             40.7271
 ZZZY=            -64.5973 XXYY=          -4605.7987 XXZZ=          -3731.2102 YYZZ=          -1730.8303
 XXYZ=           -499.2542 YYXZ=           -154.1922 ZZXY=            187.7743
 N-N= 5.693066343816D+03 E-N=-1.898675172640D+04  KE= 3.091384333246D+03
   1 Symmetry operations used in ECPInt.
 ECPInt:  NShTT=   21321 NPrTT=  126439 LenC2=   15487 LenP2D=   52125.
 LDataN:  DoStor=T MaxTD1= 6 Len=  172
 Number of processors reduced to  14 by ecpmxn.
 Calling FoFJK, ICntrl=      2127 FMM=F ISym2X=0 I1Cent= 0 IOpClX= 0 NMat=1 NMatS=1 NMatT=0.
 Defaulting to unpruned grid for atomic number  40.
 Defaulting to unpruned grid for atomic number  40.
 Defaulting to unpruned grid for atomic number  40.
 Defaulting to unpruned grid for atomic number  40.
 Defaulting to unpruned grid for atomic number  40.
 Defaulting to unpruned grid for atomic number  40.
 Defaulting to unpruned grid for atomic number  40.
 Defaulting to unpruned grid for atomic number  40.
 Defaulting to unpruned grid for atomic number  40.
 Defaulting to unpruned grid for atomic number  40.
 Defaulting to unpruned grid for atomic number  40.
 Defaulting to unpruned grid for atomic number  40.
 Defaulting to unpruned grid for atomic number  40.
 Defaulting to unpruned grid for atomic number  40.
 Defaulting to unpruned grid for atomic number  40.
 Defaulting to unpruned grid for atomic number  40.
 ***** Axes restored to original set *****
 -------------------------------------------------------------------
 Center     Atomic                   Forces (Hartrees/Bohr)
 Number     Number              X              Y              Z
 -------------------------------------------------------------------
      1       14          -0.001084227    0.000203272   -0.000935284
      2        8           0.000162468   -0.000105636   -0.000100389
      3        8           0.000056661   -0.000052960    0.000098433
      4        8           0.000046460    0.000001374    0.000101234
      5        8          -0.000267882   -0.000046538    0.000310533
      6       40           0.001094917    0.000099559   -0.000791026
      7       14          -0.000057344    0.000447665    0.000807609
      8       14          -0.000161355    0.000085660   -0.000004780
      9       14          -0.000095609   -0.000056181   -0.000091518
     10        8          -0.000292156    0.000341311    0.000085065
     11       40           0.000164737   -0.000237566    0.000138822
     12        8           0.001323862    0.001711410   -0.001355994
     13       40           0.001808700   -0.003554137    0.004084499
     14        8          -0.000314746   -0.000238232   -0.000009937
     15       40           0.000248717    0.000043308    0.000069726
     16        8           0.000037388   -0.000004723    0.000018574
     17        8           0.000020681   -0.000035344   -0.000003417
     18        8           0.000036516   -0.000024451    0.000010558
     19        8           0.000105062   -0.000115638    0.000032794
     20        8          -0.000162754    0.000012560   -0.000130411
     21        8          -0.011878735    0.000504816    0.001829377
     22        8           0.000017422    0.000016213    0.000034437
     23        8           0.000044705    0.000007028    0.000009969
     24        8           0.000037166    0.000033148    0.000056090
     25        1           0.000002180    0.000005366   -0.000004567
     26        1          -0.000003336   -0.000006202   -0.000009665
     27        1          -0.000048188   -0.000056866   -0.000055230
     28        1          -0.000066677    0.000028651    0.000033392
     29        1          -0.000028967   -0.000001237   -0.000009668
     30        1          -0.000003863    0.000000818   -0.000007977
     31        1          -0.000001910    0.000023862   -0.000002967
     32        1           0.001410285    0.001582572   -0.002439679
     33        1          -0.000104080   -0.000031503   -0.000047216
     34        8          -0.000004601    0.000024651    0.000010614
     35        1           0.000001537   -0.000001481   -0.000005835
     36        8          -0.000034205    0.000015784   -0.000053129
     37        1           0.000018053   -0.000019047    0.000021650
     38        8           0.000024902    0.000064495   -0.000077947
     39        1          -0.000000780   -0.000010409   -0.000008689
     40        8          -0.000061965    0.000092356   -0.000138052
     41        1          -0.000030396   -0.000053840    0.000125576
     42        8          -0.000038586   -0.000011514    0.000035042
     43        1           0.000004394    0.000005265   -0.000002813
     44        8          -0.000021877   -0.000033129   -0.000031549
     45        1           0.000008645    0.000007266    0.000012394
     46        8           0.000115214   -0.000008976   -0.000253285
     47        1          -0.000054606    0.000033774    0.000095576
     48        8           0.000119083    0.000154439   -0.000145155
     49        1          -0.000058370   -0.000067779    0.000025822
     50        8           0.008011293   -0.002380829    0.000085015
     51        1          -0.000043831    0.001607594   -0.001416624
 -------------------------------------------------------------------
 Cartesian Forces:  Max     0.011878735 RMS     0.001339870

 GradGradGradGradGradGradGradGradGradGradGradGradGradGradGradGradGradGrad
 Berny optimization.
 FormGI is forming the generalized inverse of G from B-inverse, IUseBI=4.
 Internal  Forces:  Max     0.089111128 RMS     0.008939366
 Search for a local minimum.
 Step number   1 out of a maximum of  229
 All quantities printed in internal units (Hartrees-Bohrs-Radians)
 Mixed Optimization -- RFO/linear search
 Second derivative matrix not updated -- first step.
 ITU=  0
     Eigenvalues ---    0.00230   0.00230   0.00230   0.00230   0.00230
     Eigenvalues ---    0.00230   0.00230   0.00230   0.00230   0.00230
     Eigenvalues ---    0.00230   0.00230   0.00230   0.00230   0.00230
     Eigenvalues ---    0.00230   0.03447   0.03470   0.03516   0.03601
     Eigenvalues ---    0.03614   0.03629   0.03654   0.03686   0.03816
     Eigenvalues ---    0.03823   0.03827   0.03839   0.03923   0.03964
     Eigenvalues ---    0.04008   0.04039   0.06239   0.08354   0.08564
     Eigenvalues ---    0.08974   0.09448   0.10123   0.10678   0.11232
     Eigenvalues ---    0.11368   0.11507   0.11595   0.11636   0.11773
     Eigenvalues ---    0.11825   0.11923   0.12003   0.12146   0.12566
     Eigenvalues ---    0.12661   0.12746   0.12781   0.12915   0.12948
     Eigenvalues ---    0.13420   0.16000   0.16000   0.16000   0.16000
     Eigenvalues ---    0.16000   0.16000   0.16000   0.16000   0.16000
     Eigenvalues ---    0.16000   0.16000   0.16000   0.16000   0.16000
     Eigenvalues ---    0.16000   0.16000   0.16000   0.16000   0.16475
     Eigenvalues ---    0.16652   0.16973   0.17555   0.17903   0.18060
     Eigenvalues ---    0.18629   0.18751   0.19259   0.19512   0.19624
     Eigenvalues ---    0.19663   0.19719   0.19732   0.19849   0.20192
     Eigenvalues ---    0.20247   0.20296   0.20320   0.20376   0.20393
     Eigenvalues ---    0.20422   0.20645   0.20651   0.20806   0.20824
     Eigenvalues ---    0.20868   0.21021   0.21050   0.21076   0.21270
     Eigenvalues ---    0.21906   0.25000   0.25000   0.25000   0.25000
     Eigenvalues ---    0.25000   0.25000   0.40115   0.40361   0.40848
     Eigenvalues ---    0.41777   0.41931   0.42098   0.42374   0.42741
     Eigenvalues ---    0.44274   0.44356   0.44406   0.44546   0.45586
     Eigenvalues ---    0.46106   0.46669   0.47064   0.51271   0.51299
     Eigenvalues ---    0.51607   0.51683   0.51719   0.52103   0.52343
     Eigenvalues ---    0.52511   0.53065   0.54681   0.54684   0.54737
     Eigenvalues ---    0.54742   0.54756   0.54764   0.55003   0.55453
     Eigenvalues ---    0.556781000.000001000.000001000.000001000.00000
     Eigenvalues --- 1000.000001000.000001000.000001000.000001000.00000
     Eigenvalues --- 1000.000001000.000001000.000001000.000001000.00000
     Eigenvalues --- 1000.000001000.000001000.000001000.000001000.00000
     Eigenvalues --- 1000.000001000.000001000.000001000.000001000.00000
     Eigenvalues --- 1000.000001000.000001000.000001000.000001000.00000
     Eigenvalues --- 1000.000001000.000001000.000001000.000001000.00000
     Eigenvalues --- 1000.000001000.000001000.000001000.000001000.00000
     Eigenvalues --- 1000.000001000.000001000.000001000.000001000.00000
     Eigenvalues --- 1000.000001000.000001000.000001000.000001000.00000
     Eigenvalues --- 1000.000001000.000001000.000001000.000001000.00000
     Eigenvalues --- 1000.000001000.000001000.000001000.000001000.00000
     Eigenvalues --- 1000.000001000.000001000.000001000.000001000.00000
     Eigenvalues --- 1000.000001000.000001000.000001000.000001000.00000
     Eigenvalues --- 1000.000001000.000001000.000001000.00000
 RFO step:  Lambda=-4.70824333D-02 EMin= 2.30000000D-03
 Linear search not attempted -- first point.
 Maximum step size (   0.300) exceeded in Quadratic search.
    -- Step size scaled by   0.865
 Iteration  1 RMS(Cart)=  0.29070129 RMS(Int)=  0.01741398
 Iteration  2 RMS(Cart)=  0.24411250 RMS(Int)=  0.00682879
 Iteration  3 RMS(Cart)=  0.01525219 RMS(Int)=  0.00035017
 Iteration  4 RMS(Cart)=  0.00003141 RMS(Int)=  0.00034938
 Iteration  5 RMS(Cart)=  0.00000001 RMS(Int)=  0.00034938
 Iteration  1 RMS(Cart)=  0.00000000 RMS(Int)=  0.00000000
 Variable       Old X    -DE/DX   Delta X   Delta X   Delta X     New X
                                 (Linear)    (Quad)   (Total)
    R1        3.09828  -0.00159   0.00000  -0.00280  -0.00280   3.09548
    R2        3.12499   0.00002   0.00000   0.00004   0.00004   3.12503
    R3        3.09671   0.00002   0.00000   0.00003   0.00003   3.09674
    R4        3.06649   0.00999   0.00000   0.01669   0.01669   3.08318
    R5        3.07712   0.00161   0.00000   0.00274   0.00274   3.07987
    R6        3.11691   0.00010   0.00000   0.00019   0.00019   3.11710
    R7        3.14118   0.00006   0.00000   0.00012   0.00012   3.14130
    R8        3.80050   0.01156   0.00000   0.04488   0.04488   3.84539
    R9        3.64785  -0.00024   0.00000  -0.00077  -0.00077   3.64708
   R10        3.82475   0.00166   0.00000   0.00664   0.00664   3.83139
   R11        3.72227  -0.00028   0.00000  -0.00101  -0.00101   3.72126
   R12        3.15098   0.00014   0.00000   0.00026   0.00026   3.15124
   R13        3.08301   0.00014   0.00000   0.00024   0.00024   3.08325
   R14        3.12149  -0.00931   0.00000  -0.01709  -0.01709   3.10440
   R15        3.12908  -0.00003   0.00000  -0.00005  -0.00005   3.12903
   R16        3.09506  -0.00001   0.00000  -0.00003  -0.00003   3.09504
   R17        3.12711   0.00001   0.00000   0.00003   0.00003   3.12714
   R18        3.09730  -0.00003   0.00000  -0.00005  -0.00005   3.09725
   R19        3.14766  -0.00003   0.00000  -0.00006  -0.00006   3.14760
   R20        3.07084   0.00001   0.00000   0.00002   0.00002   3.07087
   R21        3.84640   0.00024   0.00000   0.00096   0.00096   3.84736
   R22        3.71852  -0.00001   0.00000  -0.00004  -0.00004   3.71848
   R23        3.67543  -0.00002   0.00000  -0.00008  -0.00008   3.67535
   R24        3.83859  -0.00008   0.00000  -0.00034  -0.00034   3.83825
   R25        3.72623   0.00971   0.00000   0.03467   0.03467   3.76089
   R26        3.78033   0.00010   0.00000   0.00038   0.00038   3.78071
   R27        3.78652   0.00005   0.00000   0.00021   0.00021   3.78673
   R28        3.66751  -0.00528   0.00000  -0.01758  -0.01758   3.64993
   R29        3.75387   0.00013   0.00000   0.00049   0.00049   3.75436
   R30        3.75846  -0.00007   0.00000  -0.00025  -0.00025   3.75821
   R31        3.69499  -0.00004   0.00000  -0.00015  -0.00015   3.69484
   R32        3.68179  -0.00003   0.00000  -0.00011  -0.00011   3.68168
   R33        1.82117   0.00001   0.00000   0.00001   0.00001   1.82118
   R34        1.82049   0.00001   0.00000   0.00001   0.00001   1.82051
   R35        1.85304   0.00001   0.00000   0.00002   0.00002   1.85306
   R36        1.82114   0.00003   0.00000   0.00005   0.00005   1.82118
   R37        1.84977   0.00004   0.00000   0.00006   0.00006   1.84983
   R38        1.84500   0.00307   0.00000   0.00467   0.00467   1.84968
   R39        1.82042   0.00000   0.00000   0.00001   0.00001   1.82042
   R40        1.83593   0.00001   0.00000   0.00001   0.00001   1.83594
   R41        1.84272  -0.00008   0.00000  -0.00012  -0.00012   1.84260
   R42        1.81830   0.00000   0.00000   0.00001   0.00001   1.81830
   R43        1.84904   0.00000   0.00000   0.00000   0.00000   1.84904
   R44        1.82067   0.00001   0.00000   0.00002   0.00002   1.82068
   R45        1.85277   0.00014   0.00000   0.00021   0.00021   1.85298
   R46        1.81432   0.00001   0.00000   0.00001   0.00001   1.81433
   R47        1.81235   0.00000   0.00000   0.00001   0.00001   1.81235
   R48        1.84869  -0.00004   0.00000  -0.00006  -0.00006   1.84863
   R49        1.82062  -0.00001   0.00000  -0.00002  -0.00002   1.82060
   R50        1.84113   0.00015   0.00000   0.00023   0.00023   1.84136
    A1        1.89403  -0.01537   0.00000  -0.05492  -0.05493   1.83911
    A2        1.88617  -0.00473   0.00000  -0.01199  -0.01306   1.87311
    A3        1.87938   0.03356   0.00000   0.13925   0.13960   2.01898
    A4        1.91364   0.00485   0.00000  -0.00817  -0.00970   1.90393
    A5        1.92354  -0.00694   0.00000  -0.02693  -0.02683   1.89670
    A6        1.96515  -0.01125   0.00000  -0.03584  -0.03734   1.92782
    A7        2.84348  -0.04271   0.00000  -0.12431  -0.12431   2.71917
    A8        2.31720   0.00010   0.00000   0.00029   0.00029   2.31749
    A9        2.35610   0.00025   0.00000   0.00072   0.00072   2.35682
   A10        2.33933   0.08911   0.00000   0.00000  -0.00000   2.33933
   A11        1.98022  -0.00595   0.00000  -0.02566  -0.02722   1.95299
   A12        1.98271   0.03682   0.00000   0.16375   0.16423   2.14694
   A13        1.99111  -0.01212   0.00000  -0.04618  -0.04759   1.94352
   A14        1.77332  -0.01355   0.00000  -0.04338  -0.04422   1.72910
   A15        1.88957   0.00492   0.00000  -0.01698  -0.01922   1.87035
   A16        1.82833  -0.01081   0.00000  -0.03439  -0.03493   1.79340
   A17        1.81235  -0.00089   0.00000  -0.00093  -0.00103   1.81132
   A18        1.98544  -0.00188   0.00000  -0.00845  -0.00841   1.97703
   A19        1.86767   0.00480   0.00000   0.01956   0.01951   1.88718
   A20        1.94580   0.00068   0.00000  -0.00078  -0.00078   1.94502
   A21        1.92845   0.00141   0.00000   0.00676   0.00669   1.93514
   A22        1.92030  -0.00368   0.00000  -0.01414  -0.01411   1.90620
   A23        1.94596  -0.00001   0.00000  -0.00007  -0.00007   1.94589
   A24        1.88055  -0.00000   0.00000  -0.00001  -0.00001   1.88054
   A25        1.93311  -0.00001   0.00000  -0.00005  -0.00005   1.93307
   A26        1.93173   0.00001   0.00000   0.00005   0.00005   1.93178
   A27        1.82723  -0.00000   0.00000  -0.00001  -0.00001   1.82721
   A28        1.94617   0.00002   0.00000   0.00010   0.00010   1.94626
   A29        1.88532  -0.00001   0.00000  -0.00005  -0.00005   1.88527
   A30        1.89442  -0.00006   0.00000  -0.00021  -0.00021   1.89420
   A31        1.95715   0.00007   0.00000   0.00027   0.00027   1.95742
   A32        1.87632   0.00003   0.00000   0.00008   0.00008   1.87640
   A33        1.94135  -0.00004   0.00000  -0.00010  -0.00010   1.94125
   A34        1.90697  -0.00000   0.00000  -0.00000  -0.00000   1.90697
   A35        2.53226   0.00020   0.00000   0.00058   0.00058   2.53284
   A36        1.81826  -0.00006   0.00000  -0.00035  -0.00035   1.81791
   A37        1.87907  -0.00000   0.00000   0.00007   0.00007   1.87914
   A38        2.09284   0.00006   0.00000   0.00029   0.00029   2.09313
   A39        1.80039  -0.00001   0.00000  -0.00017  -0.00017   1.80023
   A40        1.73311  -0.00002   0.00000  -0.00021  -0.00021   1.73290
   A41        2.08556   0.00001   0.00000   0.00013   0.00013   2.08569
   A42        2.29331  -0.03171   0.00000  -0.09229  -0.09229   2.20101
   A43        1.83467  -0.00293   0.00000  -0.00938  -0.00945   1.82522
   A44        1.90442  -0.00265   0.00000  -0.00906  -0.00910   1.89532
   A45        1.85063   0.00875   0.00000   0.03980   0.03983   1.89046
   A46        1.91620   0.00124   0.00000  -0.00451  -0.00464   1.91156
   A47        1.99552  -0.00165   0.00000  -0.00602  -0.00611   1.98941
   A48        1.95546  -0.00264   0.00000  -0.00950  -0.00956   1.94590
   A49        2.44668  -0.00025   0.00000  -0.00074  -0.00074   2.44594
   A50        1.83016  -0.00011   0.00000  -0.00050  -0.00050   1.82966
   A51        1.92532   0.00003   0.00000   0.00011   0.00011   1.92543
   A52        1.89529   0.00001   0.00000  -0.00001  -0.00001   1.89529
   A53        1.89948   0.00006   0.00000   0.00025   0.00025   1.89973
   A54        1.93644   0.00001   0.00000   0.00001   0.00001   1.93646
   A55        1.97197  -0.00001   0.00000   0.00009   0.00009   1.97206
   A56        2.03455   0.00001   0.00000   0.00005   0.00005   2.03460
   A57        2.01642   0.00004   0.00000   0.00016   0.00016   2.01658
   A58        1.93923  -0.00001   0.00000  -0.00002  -0.00002   1.93921
   A59        2.03937   0.00010   0.00000   0.00042   0.00042   2.03979
   A60        1.98603   0.00012   0.00000   0.00052   0.00052   1.98655
[...]
     49          1           0        3.881476    0.640439    3.844058
     50          8           0        0.988592   -1.435433    3.924198
     51          1           0        0.032090   -1.306285    4.056587
 ---------------------------------------------------------------------
 Rotational constants (GHZ):           0.0874596           0.0389408           0.0368872

 **********************************************************************

            Population analysis using the SCF Density.

 **********************************************************************

 Orbital symmetries:
       Occupied  (A) (A) (A) (A) (A) (A) (A) (A) (A) (A) (A) (A)
                 (A) (A) (A) (A) (A) (A) (A) (A) (A) (A) (A) (A)
                 (A) (A) (A) (A) (A) (A) (A) (A) (A) (A) (A) (A)
                 (A) (A) (A) (A) (A) (A) (A) (A) (A) (A) (A) (A)
                 (A) (A) (A) (A) (A) (A) (A) (A) (A) (A) (A) (A)
                 (A) (A) (A) (A) (A) (A) (A) (A) (A) (A) (A) (A)
                 (A) (A) (A) (A) (A) (A) (A) (A) (A) (A) (A) (A)
                 (A) (A) (A) (A) (A) (A) (A) (A) (A) (A) (A) (A)
                 (A) (A) (A) (A) (A) (A) (A) (A) (A) (A) (A) (A)
                 (A) (A) (A) (A) (A) (A) (A) (A) (A) (A) (A) (A)
                 (A) (A) (A) (A) (A) (A) (A) (A) (A) (A) (A) (A)
                 (A) (A) (A) (A) (A) (A) (A) (A) (A) (A) (A) (A)
                 (A) (A) (A) (A) (A) (A) (A) (A) (A) (A) (A) (A)
                 (A) (A) (A) (A) (A)
       Virtual   (A) (A) (A) (A) (A) (A) (A) (A) (A) (A) (A) (A)
                 (A) (A) (A) (A) (A) (A) (A) (A) (A) (A) (A) (A)
                 (A) (A) (A) (A) (A) (A) (A) (A) (A) (A) (A) (A)
                 (A) (A) (A) (A) (A) (A) (A) (A) (A) (A) (A) (A)
                 (A) (A) (A) (A) (A) (A) (A) (A) (A) (A) (A) (A)
                 (A) (A) (A) (A) (A) (A) (A) (A) (A) (A) (A) (A)
                 (A) (A) (A) (A) (A) (A) (A) (A) (A) (A) (A) (A)
                 (A) (A) (A) (A) (A) (A) (A) (A) (A) (A) (A) (A)
                 (A) (A) (A) (A) (A) (A) (A) (A) (A) (A) (A) (A)
                 (A) (A) (A) (A) (A) (A) (A) (A) (A) (A) (A) (A)
                 (A) (A) (A) (A) (A) (A) (A) (A) (A) (A) (A) (A)
                 (A) (A) (A) (A) (A) (A) (A) (A) (A) (A) (A) (A)
                 (A) (A) (A) (A) (A) (A) (A) (A) (A) (A) (A) (A)
                 (A) (A) (A) (A) (A) (A) (A) (A) (A) (A) (A) (A)
                 (A) (A) (A) (A) (A) (A) (A) (A) (A) (A) (A) (A)
                 (A) (A) (A) (A) (A) (A) (A) (A) (A) (A) (A) (A)
                 (A) (A) (A) (A) (A) (A) (A) (A) (A) (A) (A) (A)
                 (A) (A) (A) (A) (A) (A) (A) (A) (A) (A) (A) (A)
                 (A) (A) (A) (A) (A) (A) (A) (A) (A) (A) (A) (A)
                 (A) (A) (A) (A) (A) (A) (A) (A) (A) (A) (A) (A)
                 (A) (A) (A) (A) (A) (A) (A) (A) (A) (A) (A) (A)
                 (A) (A) (A) (A) (A) (A) (A) (A) (A) (A) (A) (A)
                 (A) (A) (A) (A) (A) (A) (A) (A) (A) (A) (A) (A)
                 (A) (A) (A) (A) (A) (A) (A) (A) (A) (A) (A) (A)
                 (A) (A) (A) (A) (A) (A) (A) (A) (A) (A) (A) (A)
                 (A) (A) (A) (A) (A) (A) (A) (A) (A) (A) (A) (A)
                 (A) (A) (A) (A) (A) (A) (A) (A) (A) (A) (A) (A)
                 (A) (A) (A) (A) (A) (A) (A) (A) (A) (A) (A) (A)
                 (A) (A) (A) (A) (A) (A) (A) (A) (A) (A) (A) (A)
                 (A) (A) (A) (A) (A) (A) (A) (A) (A) (A) (A) (A)
                 (A) (A) (A) (A) (A) (A) (A) (A) (A) (A) (A) (A)
                 (A) (A) (A) (A) (A) (A) (A) (A) (A) (A) (A) (A)
                 (A) (A) (A) (A) (A) (A) (A) (A) (A) (A) (A) (A)
                 (A) (A) (A) (A) (A) (A) (A) (A) (A) (A) (A) (A)
                 (A) (A) (A) (A) (A) (A) (A) (A) (A) (A) (A) (A)
                 (A) (A) (A) (A) (A) (A) (A) (A) (A) (A) (A) (A)
                 (A) (A) (A) (A) (A) (A) (A)
 The electronic state is 1-A.
 Alpha  occ. eigenvalues --  -66.22057 -66.21867 -66.21403 -66.20211 -19.17173
 Alpha  occ. eigenvalues --  -19.17052 -19.16382 -19.16363 -19.16171 -19.16011
 Alpha  occ. eigenvalues --  -19.15820 -19.15805 -19.15747 -19.15738 -19.15561
 Alpha  occ. eigenvalues --  -19.15255 -19.15240 -19.14689 -19.14595 -19.14333
 Alpha  occ. eigenvalues --  -19.14260 -19.14254 -19.14202 -19.14070 -19.13377
 Alpha  occ. eigenvalues --  -19.13206 -19.12570 -19.12129 -19.11631  -5.36098
 Alpha  occ. eigenvalues --   -5.36025  -5.35597  -5.34419  -3.72061  -3.72054
 Alpha  occ. eigenvalues --   -3.72038  -3.72006  -3.71985  -3.71914  -3.71659
 Alpha  occ. eigenvalues --   -3.71514  -3.71440  -3.70415  -3.70366  -3.70295
 Alpha  occ. eigenvalues --   -2.08250  -2.06916  -2.06790  -2.05078  -1.29305
 Alpha  occ. eigenvalues --   -1.28912  -1.28505  -1.27960  -1.27728  -1.27666
 Alpha  occ. eigenvalues --   -1.27158  -1.27115  -1.26726  -1.25721  -1.25472
 Alpha  occ. eigenvalues --   -1.25127  -1.05310  -1.04366  -1.03094  -1.01968
 Alpha  occ. eigenvalues --   -1.01453  -1.01200  -1.01001  -0.99767  -0.99499
 Alpha  occ. eigenvalues --   -0.98805  -0.98568  -0.98336  -0.97951  -0.97427
 Alpha  occ. eigenvalues --   -0.96666  -0.96350  -0.95458  -0.95024  -0.94942
 Alpha  occ. eigenvalues --   -0.93887  -0.93666  -0.92081  -0.91148  -0.89516
 Alpha  occ. eigenvalues --   -0.88430  -0.61678  -0.59616  -0.58828  -0.55905
 Alpha  occ. eigenvalues --   -0.54450  -0.53629  -0.52354  -0.52131  -0.51487
 Alpha  occ. eigenvalues --   -0.51355  -0.51042  -0.51031  -0.50824  -0.50195
 Alpha  occ. eigenvalues --   -0.50103  -0.49099  -0.48849  -0.47756  -0.46757
 Alpha  occ. eigenvalues --   -0.45577  -0.45500  -0.44776  -0.42770  -0.42084
 Alpha  occ. eigenvalues --   -0.41476  -0.41410  -0.40576  -0.40369  -0.40255
 Alpha  occ. eigenvalues --   -0.39690  -0.39555  -0.39205  -0.38944  -0.38419
 Alpha  occ. eigenvalues --   -0.37852  -0.37523  -0.37402  -0.37240  -0.36816
 Alpha  occ. eigenvalues --   -0.36702  -0.36108  -0.35968  -0.35768  -0.35612
 Alpha  occ. eigenvalues --   -0.35393  -0.35248  -0.35130  -0.34987  -0.34923
 Alpha  occ. eigenvalues --   -0.34651  -0.34284  -0.34247  -0.34131  -0.33968
 Alpha  occ. eigenvalues --   -0.33750  -0.33454  -0.33422  -0.33188  -0.33035
 Alpha  occ. eigenvalues --   -0.32848  -0.32559  -0.32513  -0.32225  -0.31981
 Alpha  occ. eigenvalues --   -0.31776  -0.31672  -0.31456  -0.31131  -0.30987
 Alpha  occ. eigenvalues --   -0.30790  -0.30761  -0.30179  -0.29516  -0.29133
 Alpha  occ. eigenvalues --   -0.28622
 Alpha virt. eigenvalues --   -0.05191  -0.04775  -0.04420  -0.03386  -0.02855
 Alpha virt. eigenvalues --   -0.02668  -0.01873  -0.01567  -0.01313  -0.01119
 Alpha virt. eigenvalues --   -0.00664  -0.00563  -0.00327   0.00041   0.00539
 Alpha virt. eigenvalues --    0.00691   0.00946   0.01395   0.01529   0.01838
 Alpha virt. eigenvalues --    0.02370   0.02507   0.02819   0.03000   0.03194
 Alpha virt. eigenvalues --    0.03822   0.04073   0.04232   0.05014   0.05435
 Alpha virt. eigenvalues --    0.05758   0.05846   0.06239   0.06627   0.07144
 Alpha virt. eigenvalues --    0.08127   0.08292   0.08684   0.09544   0.10279
 Alpha virt. eigenvalues --    0.10520   0.11177   0.11976   0.12486   0.12848
 Alpha virt. eigenvalues --    0.13456   0.13891   0.14589   0.15051   0.15268
 Alpha virt. eigenvalues --    0.15842   0.16259   0.16637   0.16754   0.16940
 Alpha virt. eigenvalues --    0.17569   0.18059   0.18160   0.18355   0.18764
 Alpha virt. eigenvalues --    0.19119   0.19453   0.19648   0.20308   0.20861
 Alpha virt. eigenvalues --    0.21024   0.21262   0.21534   0.22242   0.22303
 Alpha virt. eigenvalues --    0.22568   0.22712   0.22920   0.23374   0.24187
 Alpha virt. eigenvalues --    0.24260   0.24458   0.24818   0.25122   0.25689
 Alpha virt. eigenvalues --    0.26012   0.26718   0.26869   0.27455   0.27623
 Alpha virt. eigenvalues --    0.28279   0.28613   0.29437   0.30021   0.30167
 Alpha virt. eigenvalues --    0.30649   0.31121   0.31396   0.32036   0.32762
 Alpha virt. eigenvalues --    0.33320   0.33828   0.34123   0.34601   0.35180
 Alpha virt. eigenvalues --    0.36140   0.36715   0.36950   0.37685   0.38076
 Alpha virt. eigenvalues --    0.38499   0.39531   0.40947   0.41223   0.41778
 Alpha virt. eigenvalues --    0.42289   0.44559   0.45160   0.46530   0.46878
 Alpha virt. eigenvalues --    0.49290   0.50024   0.52129   0.55643   0.56399
 Alpha virt. eigenvalues --    0.58124   0.59565   0.60421   0.64545   0.66619
 Alpha virt. eigenvalues --    0.67554   0.76587   0.76792   0.78656   0.79675
 Alpha virt. eigenvalues --    0.80194   0.81017   0.81204   0.81999   0.83476
 Alpha virt. eigenvalues --    0.83694   0.83986   0.84833   0.85919   0.86738
 Alpha virt. eigenvalues --    0.86903   0.87861   0.88927   0.89644   0.90412
 Alpha virt. eigenvalues --    0.90745   0.91710   0.92137   0.92413   0.93206
 Alpha virt. eigenvalues --    0.93319   0.93887   0.94426   0.94933   0.95634
 Alpha virt. eigenvalues --    0.96261   0.96592   0.96744   0.97403   0.97544
 Alpha virt. eigenvalues --    0.97659   0.98225   0.98434   0.98607   0.99197
 Alpha virt. eigenvalues --    0.99396   1.00071   1.00625   1.00941   1.01281
 Alpha virt. eigenvalues --    1.02355   1.02940   1.03234   1.03431   1.03895
 Alpha virt. eigenvalues --    1.04686   1.05541   1.05876   1.06335   1.06599
 Alpha virt. eigenvalues --    1.07363   1.07561   1.08161   1.08746   1.09031
 Alpha virt. eigenvalues --    1.09412   1.09574   1.10460   1.10643   1.11057
 Alpha virt. eigenvalues --    1.12009   1.12800   1.13374   1.13861   1.14383
 Alpha virt. eigenvalues --    1.14776   1.15785   1.16236   1.16722   1.17225
 Alpha virt. eigenvalues --    1.17625   1.18190   1.18764   1.19013   1.19331
 Alpha virt. eigenvalues --    1.19770   1.20198   1.20819   1.21189   1.21778
 Alpha virt. eigenvalues --    1.22132   1.22733   1.23082   1.24172   1.24397
 Alpha virt. eigenvalues --    1.25657   1.26567   1.26938   1.27581   1.27874
 Alpha virt. eigenvalues --    1.29183   1.29635   1.30903   1.31472   1.32314
 Alpha virt. eigenvalues --    1.33701   1.34329   1.35320   1.37130   1.37958
 Alpha virt. eigenvalues --    1.42387   1.43437   1.44813   1.45505   1.47177
 Alpha virt. eigenvalues --    1.47869   1.49200   1.50345   1.50672   1.51055
 Alpha virt. eigenvalues --    1.51756   1.52233   1.53657   1.54065   1.54165
 Alpha virt. eigenvalues --    1.55210   1.55453   1.55984   1.56161   1.56596
 Alpha virt. eigenvalues --    1.56892   1.57498   1.57750   1.58261   1.58495
 Alpha virt. eigenvalues --    1.58576   1.58969   1.59337   1.60103   1.60349
 Alpha virt. eigenvalues --    1.61106   1.62192   1.62290   1.62474   1.62831
 Alpha virt. eigenvalues --    1.63162   1.63859   1.63907   1.64466   1.64734
 Alpha virt. eigenvalues --    1.65577   1.65757   1.66207   1.66809   1.66989
 Alpha virt. eigenvalues --    1.67604   1.68136   1.68802   1.70482   1.70841
 Alpha virt. eigenvalues --    1.71323   1.71723   1.71932   1.72532   1.72685
 Alpha virt. eigenvalues --    1.73393   1.73499   1.74185   1.74840   1.75326
 Alpha virt. eigenvalues --    1.75482   1.76394   1.76965   1.77503   1.77827
 Alpha virt. eigenvalues --    1.78203   1.78402   1.78634   1.78981   1.79372
 Alpha virt. eigenvalues --    1.79686   1.80538   1.80830   1.81165   1.81511
 Alpha virt. eigenvalues --    1.81606   1.82179   1.82344   1.82822   1.83081
 Alpha virt. eigenvalues --    1.83551   1.83777   1.84306   1.85275   1.85440
 Alpha virt. eigenvalues --    1.85775   1.86213   1.86408   1.86749   1.86932
 Alpha virt. eigenvalues --    1.87056   1.87558   1.88063   1.88665   1.89292
 Alpha virt. eigenvalues --    1.90175   1.90930   1.91048   1.91661   1.92705
 Alpha virt. eigenvalues --    1.92876   1.93294   1.94491   1.95214   1.97100
 Alpha virt. eigenvalues --    1.97669   1.98505   1.99521   2.01054   2.01624
 Alpha virt. eigenvalues --    2.04504   2.05329   2.08757   2.09431   2.11730
 Alpha virt. eigenvalues --    2.14986   2.19018   2.32259   2.33842   2.34056
 Alpha virt. eigenvalues --    2.34488   2.35040   2.35378   2.36303   2.36563
 Alpha virt. eigenvalues --    2.37016   2.37982   2.38095   2.39662   2.39749
 Alpha virt. eigenvalues --    2.39956   2.40675   2.41094   2.42426   2.44542
 Alpha virt. eigenvalues --    2.45232   2.46522   2.48079   2.49763   2.52379
 Alpha virt. eigenvalues --    2.55729   2.56327   2.58416   2.59093   2.59737
 Alpha virt. eigenvalues --    2.60143   2.60793   2.61199   2.61664   2.61985
 Alpha virt. eigenvalues --    2.62077   2.62347   2.62524   2.62802   2.63019
 Alpha virt. eigenvalues --    2.63040   2.63155   2.63547   2.63772   2.64190
 Alpha virt. eigenvalues --    2.64548   2.64652   2.65547   2.65619   2.65734
 Alpha virt. eigenvalues --    2.65960   2.66596   2.67523   2.68569   2.69269
 Alpha virt. eigenvalues --    2.69712   2.70615   2.70796   2.73083   2.74316
 Alpha virt. eigenvalues --    2.74558   2.74630   2.76646   2.76722   2.77477
 Alpha virt. eigenvalues --    2.77640   2.78172   2.82059   2.82806   2.84844
 Alpha virt. eigenvalues --    2.86768   2.92777   3.40455   3.40759   3.40920
 Alpha virt. eigenvalues --    3.41408   3.41942   3.43388   3.43910   3.45069
 Alpha virt. eigenvalues --    3.46074   3.46577   3.47161   3.47769   3.49035
 Alpha virt. eigenvalues --    3.49695   3.52226   3.54318   3.55032   3.55428
 Alpha virt. eigenvalues --    4.73581   6.25762   6.67979   7.78386
          Condensed to atoms (all electrons):
 Mulliken charges:
               1
     1  Si   1.298718
     2  O   -0.653811
     3  O   -0.649456
     4  O   -0.648792
     5  O   -0.753617
     6  Zr   1.605430
     7  Si   1.127820
     8  Si   1.163747
     9  Si   1.136481
    10  O   -0.820252
    11  Zr   1.495721
    12  O   -0.864848
    13  Zr   1.590830
    14  O   -0.827901
    15  Zr   1.550336
    16  O   -0.627076
    17  O   -0.573788
    18  O   -0.667632
    19  O   -0.626598
    20  O   -0.610329
    21  O   -0.644417
    22  O   -0.578346
    23  O   -0.652529
    24  O   -0.618725
    25  H    0.354960
    26  H    0.334463
    27  H    0.367561
    28  H    0.370898
    29  H    0.365844
    30  H    0.337935
    31  H    0.336855
    32  H    0.381654
    33  H    0.344209
    34  O   -0.695379
    35  H    0.332503
    36  O   -0.706776
    37  H    0.365852
    38  O   -0.749059
    39  H    0.331382
    40  O   -0.763321
    41  H    0.371631
    42  O   -0.693965
    43  H    0.334098
    44  O   -0.699037
    45  H    0.335372
    46  O   -0.763036
    47  H    0.380890
    48  O   -0.742613
    49  H    0.340358
    50  O   -0.691828
    51  H    0.367582
 Sum of Mulliken charges =  -0.00000
 Mulliken charges with hydrogens summed into heavy atoms:
               1
     1  Si   1.298718
     2  O   -0.653811
     3  O   -0.649456
     4  O   -0.648792
     5  O   -0.753617
     6  Zr   1.605430
     7  Si   1.127820
     8  Si   1.163747
     9  Si   1.136481
    10  O   -0.820252
    11  Zr   1.495721
    12  O   -0.864848
    13  Zr   1.590830
    14  O   -0.827901
    15  Zr   1.550336
    16  O   -0.289141
    17  O   -0.236932
    18  O   -0.301788
    19  O   -0.282390
    20  O   -0.239431
    21  O   -0.262764
    22  O   -0.243883
    23  O   -0.297569
    24  O   -0.251165
    34  O   -0.362876
    36  O   -0.340924
    38  O   -0.417677
    40  O   -0.391690
    42  O   -0.359866
    44  O   -0.363664
    46  O   -0.382146
    48  O   -0.402255
    50  O   -0.324246
 Electronic spatial extent (au):  <R**2>=          24891.1702
 Charge=              0.0000 electrons
 Dipole moment (field-independent basis, Debye):
    X=              2.1447    Y=              4.4784    Z=              0.8634  Tot=              5.0400
 Quadrupole moment (field-independent basis, Debye-Ang):
   XX=           -293.6741   YY=           -258.3819   ZZ=           -261.3332
   XY=              3.5866   XZ=              7.4548   YZ=             -8.3809
 Traceless Quadrupole moment (field-independent basis, Debye-Ang):
   XX=            -22.5444   YY=             12.7478   ZZ=              9.7965
   XY=              3.5866   XZ=              7.4548   YZ=             -8.3809
 Octapole moment (field-independent basis, Debye-Ang**2):
  XXX=            322.0719  YYY=            100.7360  ZZZ=            -48.6508  XYY=            155.6983
  XXY=             67.9443  XXZ=            -28.1724  XZZ=            125.7165  YZZ=              8.9670
  YYZ=            -15.8514  XYZ=             59.4109
 Hexadecapole moment (field-independent basis, Debye-Ang**3):
 XXXX=         -22485.0441 YYYY=          -5620.6492 ZZZZ=          -4918.1427 XXXY=            156.8282
 XXXZ=             35.6176 YYYX=             31.5383 YYYZ=             16.8704 ZZZX=             35.9946
 ZZZY=            -74.4278 XXYY=          -4618.0310 XXZZ=          -3782.7379 YYZZ=          -1731.1518
 XXYZ=           -508.1258 YYXZ=           -168.0748 ZZXY=            182.1094
 N-N= 5.678161994078D+03 E-N=-1.895696837855D+04  KE= 3.091318597841D+03
 1\1\GINC-GRA599\FOpt\RB3LYP\Gen\H18O25Si4Zr4\SARASHS\24-Jun-2020\0\\#n
  B3LYP/GEN PSEUDO=READ Opt(modredundant)\\Title\\0,1\Si,-2.7659897264,
 0.5606793786,-0.738208233\O,-2.6601087826,-0.0340485408,0.7877301997\O
 ,-3.7561214704,1.8846036994,-0.7229350058\O,-3.4157067778,-0.600684051
 6,-1.694142722\O,-1.2685354911,0.9830721735,-1.2006596141\Zr,0.5766653
 705,0.6057717846,-0.485403333\Si,-3.0411048779,-0.3971959874,2.3304328
 842\Si,-5.3594748498,2.0848682944,-0.392516755\Si,-4.5702270767,-1.782
 0073379,-1.5122964928\O,1.331159126,-1.0343734945,-1.1668481745\Zr,2.9
 570166987,-2.2590841237,-1.1321804493\O,0.6718137211,0.2916880919,1.51
 37453007\Zr,1.8831899774,-0.8234957878,2.5985067693\O,1.8636838605,2.0
 565318454,-0.823684544\Zr,3.705472116,2.6250828345,-0.3424497354\O,-6.
 3007319656,1.7387143382,-1.7097975109\O,-5.580825146,3.635892999,0.084
 3740012\O,-5.8540769772,1.0152552464,0.7693765472\O,-3.5568391335,-1.9
 809538194,2.2474989713\O,-4.1835512918,0.5704062674,2.977507422\O,-1.6
 465204401,-0.2831183484,3.2076867553\O,-4.8068732341,-2.4901778211,-2.
 9712445381\O,-6.0033755672,-1.057703235,-1.0691550445\O,-4.1528415718,
 -2.8772001022,-0.3867638995\H,-6.3415023132,-0.4015948378,-1.700808295
 1\H,-4.0151288707,-2.8075897573,-3.4189326023\H,-3.9013576733,-2.59843
 21678,0.5131904384\H,-4.9159007425,0.7861029744,2.3645702834\H,-6.0948
 871294,0.1498353567,0.3757888662\H,-6.2244080961,2.3348971793,-2.46310
 62561\H,-4.7894533207,4.0949493426,0.386227205\H,-0.94955371,0.1418871
 223,2.6717936463\H,-4.1204698336,-2.2938230362,2.9638899828\O,3.235391
 1611,-2.7450801567,-3.0185481544\H,3.8817748588,-2.4811473739,-3.68062
 35811\O,4.5111282509,-1.1624992332,-0.7249370321\H,4.7081111219,-0.415
 2815136,-0.124703932\O,2.803872308,-4.1195885923,-0.3319962002\H,2.890
 6399805,-4.9372981412,-0.8340913213\O,4.4115420486,1.1624882363,0.8057
 772385\H,4.2736157944,0.9689937111,1.7569003019\O,4.8160960316,2.76457
 20448,-1.9455306366\H,5.2257035991,3.3604860975,-2.5771053094\O,3.5957
 021607,4.296510048,0.6523073073\H,3.122235116,5.0461474237,1.017864506
 9\O,2.5511882487,-2.2366916859,1.3488019732\H,2.5694376404,-3.21394973
 56,1.3077616107\O,3.4177577468,0.2926979217,3.242059911\H,3.705209917,
 0.5707177981,4.1185527827\O,0.8138132,-1.5081126104,4.0663050645\H,-0.
 1467139852,-1.3819207182,4.1690894033\\Version=ES64L-G16RevB.01\State=
 1-A\HF=-3237.5674855\RMSD=5.650e-09\RMSF=1.133e-04\Dipole=0.8298955,1.
 7562894,0.3982412\Quadrupole=-17.1094619,9.6983598,7.4111022,2.7560268
 ,4.7889051,-6.0970159\PG=C01 [X(H18O25Si4Zr4)]\\@


 AND ALL THIS SCIENCE I DON'T UNDERSTAND
 IT'S JUST MY JOB FIVE DAYS A WEEK

                           -- ELTON JOHN, "ROCKET MAN"
 Job cpu time:       0 days 21 hours 59 minutes 19.1 seconds.
 Elapsed time:       0 days  1 hours 22 minutes 40.4 seconds.
 File lengths (MBytes):  RWF=    218 Int=      0 D2E=      0 Chk=     28 Scr=      1
 Normal termination of Gaussian 16 at Wed Jun 24 15:20:45 2020.
