 Entering Gaussian System, Link 0=g16
 Initial command:
 /opt/software/gaussian/g16.b01/l1.exe "/localscratch/sarashs.35250432.0/Gau-11300.inp" -scrdir="/localscratch/sarashs.35250432.0/"
 Entering Link 1 = /opt/software/gaussian/g16.b01/l1.exe PID=     11302.
  
 Copyright (c) 1988-2017, Gaussian, Inc.  All Rights Reserved.
  
 This is part of the Gaussian(R) 16 program.  It is based on
 the Gaussian(R) 09 system (copyright 2009, Gaussian, Inc.),
 the Gaussian(R) 03 system (copyright 2003, Gaussian, Inc.),
 the Gaussian(R) 98 system (copyright 1998, Gaussian, Inc.),
 the Gaussian(R) 94 system (copyright 1995, Gaussian, Inc.),
 the Gaussian 92(TM) system (copyright 1992, Gaussian, Inc.),
 the Gaussian 90(TM) system (copyright 1990, Gaussian, Inc.),
 the Gaussian 88(TM) system (copyright 1988, Gaussian, Inc.),
 the Gaussian 86(TM) system (copyright 1986, Carnegie Mellon
 University), and the Gaussian 82(TM) system (copyright 1983,
 Carnegie Mellon University). Gaussian is a federally registered
 trademark of Gaussian, Inc.
  
 This software contains proprietary and confidential information,
 including trade secrets, belonging to Gaussian, Inc.
  
 This software is provided under written license and may be
 used, copied, transmitted, or stored only in accord with that
 written license.
  
 The following legend is applicable only to US Government
 contracts under FAR:
  
                    RESTRICTED RIGHTS LEGEND
  
 Use, reproduction and disclosure by the US Government is
 subject to restrictions as set forth in subparagraphs (a)
 and (c) of the Commercial Computer Software - Restricted
 Rights clause in FAR 52.227-19.
  
 Gaussian, Inc.
 340 Quinnipiac St., Bldg. 40, Wallingford CT 06492
  
  
 ---------------------------------------------------------------
 Warning -- This program may not be used in any manner that
 competes with the business of Gaussian, Inc. or will provide
 assistance to any competitor of Gaussian, Inc.  The licensee
 of this program is prohibited from giving any competitor of
 Gaussian, Inc. access to this program.  By using this program,
 the user acknowledges that Gaussian, Inc. is engaged in the
 business of creating and licensing software in the field of
 computational chemistry and represents and warrants to the
 licensee that it is not a competitor of Gaussian, Inc. and that
 it will not use this program in any manner prohibited above.
 ---------------------------------------------------------------
  

 Cite this work as:
 Gaussian 16, Revision B.01,
 M. J. Frisch, G. W. Trucks, H. B. Schlegel, G. E. Scuseria, 
 M. A. Robb, J. R. Cheeseman, G. Scalmani, V. Barone, 
 G. A. Petersson, H. Nakatsuji, X. Li, M. Caricato, A. V. Marenich, 
 J. Bloino, B. G. Janesko, R. Gomperts, B. Mennucci, H. P. Hratchian, 
 J. V. Ortiz, A. F. Izmaylov, J. L. Sonnenberg, D. Williams-Young, 
 F. Ding, F. Lipparini, F. Egidi, J. Goings, B. Peng, A. Petrone, 
 T. Henderson, D. Ranasinghe, V. G. Zakrzewski, J. Gao, N. Rega, 
 G. Zheng, W. Liang, M. Hada, M. Ehara, K. Toyota, R. Fukuda, 
 J. Hasegawa, M. Ishida, T. Nakajima, Y. Honda, O. Kitao, H. Nakai, 
 T. Vreven, K. Throssell, J. A. Montgomery, Jr., J. E. Peralta, 
 F. Ogliaro, M. J. Bearpark, J. J. Heyd, E. N. Brothers, K. N. Kudin, 
 V. N. Staroverov, T. A. Keith, R. Kobayashi, J. Normand, 
 K. Raghavachari, A. P. Rendell, J. C. Burant, S. S. Iyengar, 
 J. Tomasi, M. Cossi, J. M. Millam, M. Klene, C. Adamo, R. Cammi, 
 J. W. Ochterski, R. L. Martin, K. Morokuma, O. Farkas, 
 J. B. Foresman, and D. J. Fox, Gaussian, Inc., Wallingford CT, 2016.
 
 ******************************************
 Gaussian 16:  ES64L-G16RevB.01 20-Dec-2017
                16-Jul-2020 
 ******************************************
 %NProcShared=16
 Will use up to   16 processors via shared memory.
 ------------------------------------------------------------------
 #n B3LYP/Gen Pseudo=cards EmpiricalDispersion=GD3 Opt=modredundant
 ------------------------------------------------------------------
 1/18=120,19=15,26=3,38=1/1,3;
 2/9=110,12=2,17=6,18=5,40=1/2;
 3/5=7,11=2,16=1,17=8,25=1,30=1,71=1,74=-5,124=31/1,2,3;
 4//1;
 5/5=2,38=5/2;
 6/7=2,8=2,9=2,10=2,28=1/1;
 7//1,2,3,16;
 1/18=20,19=15,26=3/3(2);
 2/9=110/2;
 99//99;
 2/9=110/2;
 3/5=7,6=1,11=2,16=1,17=8,25=1,30=1,71=1,74=-5,82=7,124=31/1,2,3;
 4/5=5,16=3,69=1/1;
 5/5=2,38=5/2;
 7//1,2,3,16;
 1/18=20,19=15,26=3/3(-5);
 2/9=110/2;
 6/7=2,8=2,9=2,10=2,19=2,28=1/1;
 99/9=1/99;
 -----
 Title
 -----
 Symbolic Z-matrix:
 Charge =  0 Multiplicity = 1
 Zr                    1.37839  -0.01367  -0.01029 
 Si                   -2.08352   0.32725  -0.0044 
 O                    -0.57498  -0.28442   0.01654 
 O                    -1.99331   1.81464   0.71149 
 O                    -3.12679  -0.71966   0.75532 
 O                    -2.72136   0.55278  -1.51438 
 H                    -2.77074  -1.19961   1.51112 
 H                    -3.19065  -0.20359  -1.88394 
 H                    -2.75693   2.38936   0.58845 
 O                     2.15239  -1.31312  -1.2196 
 H                     2.65751  -1.85105  -1.82887 
 O                     2.04402  -0.29207   1.78758 
 H                     2.51011  -0.3161    2.62313 
 O                     1.78195   1.7752   -0.6111 
 H                     1.91399   2.68442  -0.87911 
 
 The following ModRedundant input section has been read:
 A       1       2       3 F                                                   
 

 GradGradGradGradGradGradGradGradGradGradGradGradGradGradGradGradGradGrad
 Berny optimization.
 Initialization pass.
                           ----------------------------
                           !    Initial Parameters    !
                           ! (Angstroms and Degrees)  !
 --------------------------                            --------------------------
 ! Name  Definition              Value          Derivative Info.                !
 --------------------------------------------------------------------------------
 ! R1    R(1,3)                  1.9722         estimate D2E/DX2                !
 ! R2    R(1,10)                 1.9365         estimate D2E/DX2                !
 ! R3    R(1,12)                 1.9372         estimate D2E/DX2                !
 ! R4    R(1,14)                 1.9297         estimate D2E/DX2                !
 ! R5    R(2,3)                  1.628          estimate D2E/DX2                !
 ! R6    R(2,4)                  1.6532         estimate D2E/DX2                !
 ! R7    R(2,5)                  1.6618         estimate D2E/DX2                !
 ! R8    R(2,6)                  1.6546         estimate D2E/DX2                !
 ! R9    R(4,9)                  0.9636         estimate D2E/DX2                !
 ! R10   R(5,7)                  0.9635         estimate D2E/DX2                !
 ! R11   R(6,8)                  0.9638         estimate D2E/DX2                !
 ! R12   R(10,11)                0.9569         estimate D2E/DX2                !
 ! R13   R(12,13)                0.9571         estimate D2E/DX2                !
 ! R14   R(14,15)                0.9571         estimate D2E/DX2                !
 ! A1    A(3,1,10)             108.1944         estimate D2E/DX2                !
 ! A2    A(3,1,12)             107.9362         estimate D2E/DX2                !
 ! A3    A(3,1,14)             109.793          estimate D2E/DX2                !
 ! A4    A(10,1,12)            110.2299         estimate D2E/DX2                !
 ! A5    A(10,1,14)            110.1226         estimate D2E/DX2                !
 ! A6    A(12,1,14)            110.5061         estimate D2E/DX2                !
 ! A7    A(1,2,3)               16.4677         Frozen                          !
 ! A8    A(3,2,4)              106.3745         estimate D2E/DX2                !
 ! A9    A(3,2,5)              109.8255         estimate D2E/DX2                !
 ! A10   A(3,2,6)              114.8449         estimate D2E/DX2                !
 ! A11   A(4,2,5)              113.7718         estimate D2E/DX2                !
 ! A12   A(4,2,6)              107.0729         estimate D2E/DX2                !
 ! A13   A(5,2,6)              105.1332         estimate D2E/DX2                !
 ! A14   A(1,3,2)              150.0001         estimate D2E/DX2                !
 ! A15   A(2,4,9)              115.9812         estimate D2E/DX2                !
 ! A16   A(2,5,7)              116.1313         estimate D2E/DX2                !
 ! A17   A(2,6,8)              115.5094         estimate D2E/DX2                !
 ! A18   L(1,10,11,8,-1)       186.6928         estimate D2E/DX2                !
 ! A19   L(1,12,13,7,-1)       190.2168         estimate D2E/DX2                !
 ! A20   L(1,14,15,4,-1)       175.3959         estimate D2E/DX2                !
 ! A21   L(1,10,11,8,-2)       171.9266         estimate D2E/DX2                !
 ! A22   L(1,12,13,7,-2)       184.9576         estimate D2E/DX2                !
 ! A23   L(1,14,15,4,-2)       179.3504         estimate D2E/DX2                !
 ! D1    D(10,1,3,2)          -136.4115         estimate D2E/DX2                !
 ! D2    D(12,1,3,2)           104.3158         estimate D2E/DX2                !
 ! D3    D(14,1,3,2)           -16.2023         estimate D2E/DX2                !
 ! D4    D(4,2,3,1)            -29.9123         estimate D2E/DX2                !
 ! D5    D(5,2,3,1)           -153.4537         estimate D2E/DX2                !
 ! D6    D(6,2,3,1)             88.3337         estimate D2E/DX2                !
 ! D7    D(3,2,4,9)            165.9163         estimate D2E/DX2                !
 ! D8    D(5,2,4,9)            -73.0402         estimate D2E/DX2                !
 ! D9    D(6,2,4,9)             42.6619         estimate D2E/DX2                !
 ! D10   D(3,2,5,7)             35.3284         estimate D2E/DX2                !
 ! D11   D(4,2,5,7)            -83.7664         estimate D2E/DX2                !
 ! D12   D(6,2,5,7)            159.3968         estimate D2E/DX2                !
 ! D13   D(3,2,6,8)             88.623          estimate D2E/DX2                !
 ! D14   D(4,2,6,8)           -153.5248         estimate D2E/DX2                !
 ! D15   D(5,2,6,8)            -32.2003         estimate D2E/DX2                !
 --------------------------------------------------------------------------------
 Trust Radius=3.00D-01 FncErr=1.00D-07 GrdErr=1.00D-06 EigMax=2.50D+02 EigMin=1.00D-04
 Number of steps in this run=     62 maximum allowed number of steps=    100.
 GradGradGradGradGradGradGradGradGradGradGradGradGradGradGradGradGradGrad

                          Input orientation:                          
 ---------------------------------------------------------------------
 Center     Atomic      Atomic             Coordinates (Angstroms)
 Number     Number       Type             X           Y           Z
 ---------------------------------------------------------------------
      1         40           0        1.378390   -0.013670   -0.010290
      2         14           0       -2.083520    0.327250   -0.004400
      3          8           0       -0.574980   -0.284420    0.016540
      4          8           0       -1.993310    1.814640    0.711490
      5          8           0       -3.126790   -0.719660    0.755320
      6          8           0       -2.721360    0.552780   -1.514380
      7          1           0       -2.770740   -1.199610    1.511120
      8          1           0       -3.190650   -0.203590   -1.883940
      9          1           0       -2.756930    2.389360    0.588450
     10          8           0        2.152390   -1.313120   -1.219600
     11          1           0        2.657510   -1.851050   -1.828870
     12          8           0        2.044020   -0.292070    1.787580
     13          1           0        2.510110   -0.316100    2.623130
     14          8           0        1.781950    1.775200   -0.611100
     15          1           0        1.913990    2.684420   -0.879110
 ---------------------------------------------------------------------
                    Distance matrix (angstroms):
                    1          2          3          4          5
     1  Zr   0.000000
     2  Si   3.478661   0.000000
     3  O    1.972227   1.627965   0.000000
     4  O    3.902825   1.653168   2.626912   0.000000
     5  O    4.623984   1.661808   2.692019   2.776576   0.000000
     6  O    4.403533   1.654613   2.766147   2.660234   2.633442
     7  H    4.575633   2.258401   2.809396   3.213955   0.963513
     8  H    4.941939   2.245039   3.234206   3.499019   2.690000
     9  H    4.820157   2.248833   3.498155   0.963617   3.135386
    10  O    1.936512   4.702176   3.166198   5.540652   5.667649
    11  H    2.884328   5.527300   4.038423   6.443667   6.435543
    12  O    1.937242   4.542173   3.161614   4.679341   5.290148
    13  H    2.882214   5.330971   4.038947   5.336217   5.951993
    14  O    1.929738   4.172110   3.192348   4.000423   5.673373
    15  H    2.884685   4.722442   3.976326   4.307380   6.298300
                    6          7          8          9         10
     6  O    0.000000
     7  H    3.496707   0.000000
     8  H    0.963796   3.562978   0.000000
     9  H    2.792165   3.705701   3.608908   0.000000
    10  O    5.227037   5.630890   5.497316   6.409277   0.000000
    11  H    5.899961   6.406700   6.076029   7.289765   0.956935
    12  O    5.858802   4.907339   6.394502   5.628241   3.177644
    13  H    6.726234   5.468504   7.268081   6.261082   3.986049
    14  O    4.752897   5.837833   5.501135   4.734717   3.169419
    15  H    5.141393   6.538011   5.950431   4.904925   4.019091
                   11         12         13         14         15
    11  H    0.000000
    12  O    3.985662   0.000000
    13  H    4.711486   0.957059   0.000000
    14  O    3.924189   3.177413   3.919693   0.000000
    15  H    4.693118   3.998454   4.650179   0.957050   0.000000
 Stoichiometry    H6O7SiZr
 Framework group  C1[X(H6O7SiZr)]
 Deg. of freedom    39
 Full point group                 C1      NOp   1
 Largest Abelian subgroup         C1      NOp   1
 Largest concise Abelian subgroup C1      NOp   1
                         Standard orientation:                         
 ---------------------------------------------------------------------
 Center     Atomic      Atomic             Coordinates (Angstroms)
 Number     Number       Type             X           Y           Z
 ---------------------------------------------------------------------
      1         40           0        1.346915   -0.023991   -0.014655
      2         14           0       -2.131576   -0.051654    0.005847
      3          8           0       -0.567217   -0.496090   -0.068517
      4          8           0       -2.193488    1.272220    0.994022
      5          8           0       -3.055284   -1.327222    0.536221
      6          8           0       -2.797982    0.391537   -1.442334
      7          1           0       -2.646727   -1.903484    1.191477
      8          1           0       -3.187614   -0.324566   -1.956422
      9          1           0       -3.013735    1.777459    0.971968
     10          8           0        2.245842   -0.980230   -1.438598
     11          1           0        2.801050   -1.336097   -2.132014
     12          8           0        2.048107   -0.571050    1.706381
     13          1           0        2.518837   -0.706202    2.528639
     14          8           0        1.557686    1.878883   -0.256594
     15          1           0        1.592351    2.831307   -0.343959
 ---------------------------------------------------------------------
 Rotational constants (GHZ):           1.6470672           0.4917949           0.4903230
 General basis read from cards:  (5D, 7F)
 ======================================================================================================
                                       Pseudopotential Parameters
 ======================================================================================================
  Center     Atomic      Valence      Angular      Power
  Number     Number     Electrons     Momentum     of R      Exponent        Coefficient   SO-Coeffient
 ======================================================================================================
    1         40           12
                                      G and up 
                                                     2        1.0000000        0.00000000    0.00000000
                                      S - G
                                                     2        8.6365280      150.24299400    0.00000000
                                                     2        3.7176390       18.78003600    0.00000000
                                      P - G
                                                     2        7.6267280       33.19279100    0.00000000
                                                     2        7.4532070       66.38903900    0.00000000
                                                     2        3.3583890        4.62072600    0.00000000
                                                     2        3.2297380        9.26027000    0.00000000
                                      D - G
                                                     2        5.9380860       13.99338300    0.00000000
                                                     2        5.8255440       20.99588200    0.00000000
                                                     2        2.2050190        2.28516600    0.00000000
                                                     2        2.2062920        3.44126000    0.00000000
                                      F - G
                                                     2        4.8002150       -5.23932000    0.00000000
                                                     2        4.7989920       -6.98742400    0.00000000
    2         14
                                   No pseudopotential on this center.
    3          8
                                   No pseudopotential on this center.
    4          8
                                   No pseudopotential on this center.
    5          8
                                   No pseudopotential on this center.
    6          8
                                   No pseudopotential on this center.
    7          1
                                   No pseudopotential on this center.
    8          1
                                   No pseudopotential on this center.
    9          1
                                   No pseudopotential on this center.
   10          8
                                   No pseudopotential on this center.
   11          1
                                   No pseudopotential on this center.
   12          8
                                   No pseudopotential on this center.
   13          1
                                   No pseudopotential on this center.
   14          8
                                   No pseudopotential on this center.
   15          1
                                   No pseudopotential on this center.
 ======================================================================================================
 There are   300 symmetry adapted cartesian basis functions of A   symmetry.
 There are   266 symmetry adapted basis functions of A   symmetry.
   266 basis functions,   576 primitive gaussians,   300 cartesian basis functions
    44 alpha electrons       44 beta electrons
       nuclear repulsion energy       636.3338879773 Hartrees.
 NAtoms=   15 NActive=   15 NUniq=   15 SFac= 1.00D+00 NAtFMM=   60 NAOKFM=F Big=F
 Integral buffers will be    131072 words long.
 Raffenetti 2 integral format.
 Two-electron integral symmetry is turned on.
 Nuclear repulsion after empirical dispersion term =      636.3235269374 Hartrees.
 One-electron integrals computed using PRISM.
 PrsmSu:  requested number of processors reduced to:   4 ShMem   1 Linda.
   1 Symmetry operations used in ECPInt.
 ECPInt:  NShTT=    3321 NPrTT=   20810 LenC2=    3183 LenP2D=   15096.
 LDataN:  DoStor=T MaxTD1= 8 Len=  415
 NBasis=   266 RedAO= T EigKep=  1.06D-04  NBF=   266
 NBsUse=   266 1.00D-06 EigRej= -1.00D+00 NBFU=   266
 Defaulting to unpruned grid for atomic number  40.
 ExpMin= 1.01D-02 ExpMax= 1.61D+04 ExpMxC= 2.43D+03 IAcc=3 IRadAn=         5 AccDes= 0.00D+00
 Harris functional with IExCor=  402 and IRadAn=       5 diagonalized for initial guess.
 HarFok:  IExCor=  402 AccDes= 0.00D+00 IRadAn=         5 IDoV= 1 UseB2=F ITyADJ=14
 ICtDFT=  3500011 ScaDFX=  1.000000  1.000000  1.000000  1.000000
 Defaulting to unpruned grid for atomic number  40.
 FoFCou: FMM=F IPFlag=           0 FMFlag=      100000 FMFlg1=           0
         NFxFlg=           0 DoJE=T BraDBF=F KetDBF=T FulRan=T
         wScrn=  0.000000 ICntrl=       500 IOpCl=  0 I1Cent=   200000004 NGrid=           0
         NMat0=    1 NMatS0=      1 NMatT0=    0 NMatD0=    1 NMtDS0=    0 NMtDT0=    0
 Petite list used in FoFCou.
 Requested convergence on RMS density matrix=1.00D-08 within 128 cycles.
 Requested convergence on MAX density matrix=1.00D-06.
 Requested convergence on             energy=1.00D-06.
 No special actions if energy rises.
 Defaulting to unpruned grid for atomic number  40.
 Defaulting to unpruned grid for atomic number  40.
 Defaulting to unpruned grid for atomic number  40.
 Defaulting to unpruned grid for atomic number  40.
 Defaulting to unpruned grid for atomic number  40.
 Defaulting to unpruned grid for atomic number  40.
 Defaulting to unpruned grid for atomic number  40.
 Defaulting to unpruned grid for atomic number  40.
 Defaulting to unpruned grid for atomic number  40.
 Defaulting to unpruned grid for atomic number  40.
 Defaulting to unpruned grid for atomic number  40.
 Defaulting to unpruned grid for atomic number  40.
 Defaulting to unpruned grid for atomic number  40.
 Defaulting to unpruned grid for atomic number  40.
 Defaulting to unpruned grid for atomic number  40.
 Defaulting to unpruned grid for atomic number  40.
 SCF Done:  E(RB3LYP) =  -867.127560147     A.U. after   13 cycles
            NFock= 13  Conv=0.47D-08     -V/T= 2.0439

 **********************************************************************

            Population analysis using the SCF Density.

 **********************************************************************

 Orbital symmetries:
       Occupied  (A) (A) (A) (A) (A) (A) (A) (A) (A) (A) (A) (A)
                 (A) (A) (A) (A) (A) (A) (A) (A) (A) (A) (A) (A)
                 (A) (A) (A) (A) (A) (A) (A) (A) (A) (A) (A) (A)
                 (A) (A) (A) (A) (A) (A) (A) (A)
       Virtual   (A) (A) (A) (A) (A) (A) (A) (A) (A) (A) (A) (A)
                 (A) (A) (A) (A) (A) (A) (A) (A) (A) (A) (A) (A)
                 (A) (A) (A) (A) (A) (A) (A) (A) (A) (A) (A) (A)
                 (A) (A) (A) (A) (A) (A) (A) (A) (A) (A) (A) (A)
                 (A) (A) (A) (A) (A) (A) (A) (A) (A) (A) (A) (A)
                 (A) (A) (A) (A) (A) (A) (A) (A) (A) (A) (A) (A)
                 (A) (A) (A) (A) (A) (A) (A) (A) (A) (A) (A) (A)
                 (A) (A) (A) (A) (A) (A) (A) (A) (A) (A) (A) (A)
                 (A) (A) (A) (A) (A) (A) (A) (A) (A) (A) (A) (A)
                 (A) (A) (A) (A) (A) (A) (A) (A) (A) (A) (A) (A)
                 (A) (A) (A) (A) (A) (A) (A) (A) (A) (A) (A) (A)
                 (A) (A) (A) (A) (A) (A) (A) (A) (A) (A) (A) (A)
                 (A) (A) (A) (A) (A) (A) (A) (A) (A) (A) (A) (A)
                 (A) (A) (A) (A) (A) (A) (A) (A) (A) (A) (A) (A)
                 (A) (A) (A) (A) (A) (A) (A) (A) (A) (A) (A) (A)
                 (A) (A) (A) (A) (A) (A) (A) (A) (A) (A) (A) (A)
                 (A) (A) (A) (A) (A) (A) (A) (A) (A) (A) (A) (A)
                 (A) (A) (A) (A) (A) (A) (A) (A) (A) (A) (A) (A)
                 (A) (A) (A) (A) (A) (A)
 The electronic state is 1-A.
 Alpha  occ. eigenvalues --  -66.19973 -19.15222 -19.15221 -19.15106 -19.14293
 Alpha  occ. eigenvalues --  -19.14155 -19.14103 -19.13263  -5.34086  -3.70050
 Alpha  occ. eigenvalues --   -3.70043  -3.70007  -2.11089  -1.27410  -1.27294
 Alpha  occ. eigenvalues --   -1.27009  -1.02880  -0.99719  -0.99496  -0.96526
 Alpha  occ. eigenvalues --   -0.95308  -0.95246  -0.94185  -0.57518  -0.52366
 Alpha  occ. eigenvalues --   -0.51691  -0.50242  -0.49568  -0.49499  -0.45517
 Alpha  occ. eigenvalues --   -0.39679  -0.37707  -0.37403  -0.36039  -0.35607
 Alpha  occ. eigenvalues --   -0.34706  -0.34272  -0.34017  -0.32826  -0.32708
 Alpha  occ. eigenvalues --   -0.31977  -0.31249  -0.31149  -0.30776
 Alpha virt. eigenvalues --   -0.02876  -0.01280  -0.00638  -0.00519   0.00386
 Alpha virt. eigenvalues --    0.00467   0.01080   0.01207   0.01843   0.02342
 Alpha virt. eigenvalues --    0.02499   0.03045   0.03237   0.03348   0.03446
 Alpha virt. eigenvalues --    0.04268   0.04539   0.04702   0.05428   0.05725
 Alpha virt. eigenvalues --    0.06744   0.09133   0.09662   0.09886   0.10009
 Alpha virt. eigenvalues --    0.10268   0.11525   0.12390   0.13068   0.13919
 Alpha virt. eigenvalues --    0.14683   0.15544   0.16132   0.16681   0.17861
 Alpha virt. eigenvalues --    0.17974   0.18290   0.19259   0.19483   0.19751
 Alpha virt. eigenvalues --    0.20404   0.20676   0.21403   0.21970   0.22630
 Alpha virt. eigenvalues --    0.23841   0.24681   0.25308   0.26418   0.26674
 Alpha virt. eigenvalues --    0.27340   0.27419   0.27972   0.28212   0.28727
 Alpha virt. eigenvalues --    0.29063   0.29631   0.29912   0.30045   0.30981
 Alpha virt. eigenvalues --    0.31209   0.33004   0.34072   0.34739   0.35374
 Alpha virt. eigenvalues --    0.35787   0.36184   0.37147   0.38844   0.39126
 Alpha virt. eigenvalues --    0.42210   0.44108   0.44384   0.46975   0.48130
 Alpha virt. eigenvalues --    0.48932   0.49383   0.50059   0.51877   0.53728
 Alpha virt. eigenvalues --    0.54320   0.57106   0.58126   0.59794   0.60740
 Alpha virt. eigenvalues --    0.61452   0.62289   0.62865   0.65264   0.66078
 Alpha virt. eigenvalues --    0.67580   0.67713   0.70714   0.72353   0.73818
 Alpha virt. eigenvalues --    0.74821   0.75535   0.77690   0.78444   0.80744
 Alpha virt. eigenvalues --    0.85216   0.85657   0.96280   0.97894   0.98468
 Alpha virt. eigenvalues --    1.01892   1.02685   1.04250   1.06206   1.06892
 Alpha virt. eigenvalues --    1.07850   1.18883   1.19652   1.20813   1.21007
 Alpha virt. eigenvalues --    1.21489   1.23152   1.23670   1.23737   1.24669
 Alpha virt. eigenvalues --    1.26019   1.27116   1.28329   1.28553   1.28992
 Alpha virt. eigenvalues --    1.30242   1.31132   1.31710   1.31871   1.32899
 Alpha virt. eigenvalues --    1.34261   1.36997   1.42896   1.43379   1.46011
 Alpha virt. eigenvalues --    1.48873   1.52032   1.55269   1.59933   1.60927
 Alpha virt. eigenvalues --    1.61179   1.63083   1.63792   1.65060   1.67142
 Alpha virt. eigenvalues --    1.70254   1.70809   1.71965   1.72886   1.73139
 Alpha virt. eigenvalues --    1.74045   1.74541   1.75785   1.76973   1.78201
 Alpha virt. eigenvalues --    1.80288   1.80625   1.82456   1.83580   1.84682
 Alpha virt. eigenvalues --    1.86535   1.87402   1.90765   1.91354   1.91678
 Alpha virt. eigenvalues --    1.92841   1.94173   1.95791   1.96526   1.97394
 Alpha virt. eigenvalues --    1.98982   2.00598   2.02090   2.03109   2.07055
 Alpha virt. eigenvalues --    2.08592   2.08856   2.10671   2.13546   2.17744
 Alpha virt. eigenvalues --    2.18710   2.21222   2.23833   2.26086   2.31557
 Alpha virt. eigenvalues --    2.40026   2.42087   2.42691   2.43926   2.45766
 Alpha virt. eigenvalues --    2.50611   2.58193   2.61082   2.62339   2.63363
 Alpha virt. eigenvalues --    2.65127   2.68263   2.68388   2.69610   2.73323
 Alpha virt. eigenvalues --    2.79208   2.80536   2.81931   2.83829   2.87654
 Alpha virt. eigenvalues --    2.90242   2.91539   2.91662   2.92804   2.94437
 Alpha virt. eigenvalues --    2.97850   3.12462   3.46148   3.48630   3.51133
 Alpha virt. eigenvalues --    3.55386   3.61109   3.74614   4.13547   4.15043
 Alpha virt. eigenvalues --    4.18735  30.84790
          Condensed to atoms (all electrons):
               1          2          3          4          5          6
     1  Zr  10.496896   0.117634  -0.027058   0.005863  -0.087367  -0.034028
     2  Si   0.117634  12.964362  -0.681408  -0.083699  -0.173728   0.023955
     3  O   -0.027058  -0.681408   8.902186   0.100510   0.299000   0.084667
     4  O    0.005863  -0.083699   0.100510   8.577447  -0.032010   0.039212
     5  O   -0.087367  -0.173728   0.299000  -0.032010   8.568256   0.008517
     6  O   -0.034028   0.023955   0.084667   0.039212   0.008517   8.533709
     7  H   -0.005168   0.032191  -0.000944  -0.006243   0.238551   0.006824
     8  H    0.001778   0.057507  -0.020866   0.006084  -0.004675   0.233969
     9  H   -0.005067   0.035166   0.010729   0.226728  -0.005241  -0.004734
    10  O    0.020014  -0.008601  -0.024661   0.000631   0.000984   0.000834
    11  H   -0.087675   0.000443  -0.000911  -0.000001   0.000001   0.000003
    12  O    0.026049  -0.010803  -0.024810  -0.000058   0.001557   0.000095
    13  H   -0.086265   0.000698  -0.000648  -0.000007   0.000001   0.000001
    14  O    0.019518  -0.007405  -0.025173   0.004624   0.000976  -0.002290
    15  H   -0.089381   0.000569  -0.000055   0.000211   0.000003   0.000054
               7          8          9         10         11         12
     1  Zr  -0.005168   0.001778  -0.005067   0.020014  -0.087675   0.026049
     2  Si   0.032191   0.057507   0.035166  -0.008601   0.000443  -0.010803
     3  O   -0.000944  -0.020866   0.010729  -0.024661  -0.000911  -0.024810
     4  O   -0.006243   0.006084   0.226728   0.000631  -0.000001  -0.000058
     5  O    0.238551  -0.004675  -0.005241   0.000984   0.000001   0.001557
     6  O    0.006824   0.233969  -0.004734   0.000834   0.000003   0.000095
     7  H    0.370688   0.000056   0.000091   0.000007   0.000000  -0.000026
     8  H    0.000056   0.358281   0.000065  -0.000028  -0.000000  -0.000006
     9  H    0.000091   0.000065   0.363666  -0.000003  -0.000000  -0.000008
    10  O    0.000007  -0.000028  -0.000003   8.620719   0.329001  -0.032334
    11  H    0.000000  -0.000000  -0.000000   0.329001   0.381841  -0.000930
    12  O   -0.000026  -0.000006  -0.000008  -0.032334  -0.000930   8.616777
    13  H   -0.000000  -0.000000  -0.000000  -0.000769  -0.000008   0.326133
    14  O   -0.000002   0.000031  -0.000095  -0.037876  -0.001380  -0.038392
    15  H    0.000000  -0.000000  -0.000001  -0.000697  -0.000007  -0.000973
              13         14         15
     1  Zr  -0.086265   0.019518  -0.089381
     2  Si   0.000698  -0.007405   0.000569
     3  O   -0.000648  -0.025173  -0.000055
     4  O   -0.000007   0.004624   0.000211
     5  O    0.000001   0.000976   0.000003
     6  O    0.000001  -0.002290   0.000054
     7  H   -0.000000  -0.000002   0.000000
     8  H   -0.000000   0.000031  -0.000000
     9  H   -0.000000  -0.000095  -0.000001
    10  O   -0.000769  -0.037876  -0.000697
    11  H   -0.000008  -0.001380  -0.000007
    12  O    0.326133  -0.038392  -0.000973
    13  H    0.382331  -0.001548  -0.000011
    14  O   -0.001548   8.610560   0.331478
    15  H   -0.000011   0.331478   0.378404
 Mulliken charges:
               1
     1  Zr   1.734255
     2  Si   1.733119
     3  O   -0.590556
     4  O   -0.839292
     5  O   -0.814827
     6  O   -0.890786
     7  H    0.363976
     8  H    0.367804
     9  H    0.378704
    10  O   -0.867223
    11  H    0.379623
    12  O   -0.862271
    13  H    0.380091
    14  O   -0.853025
    15  H    0.380406
 Sum of Mulliken charges =  -0.00000
 Mulliken charges with hydrogens summed into heavy atoms:
               1
     1  Zr   1.734255
     2  Si   1.733119
     3  O   -0.590556
     4  O   -0.460588
     5  O   -0.450851
     6  O   -0.522982
    10  O   -0.487600
    12  O   -0.482179
    14  O   -0.472619
 Electronic spatial extent (au):  <R**2>=           2189.8779
 Charge=             -0.0000 electrons
 Dipole moment (field-independent basis, Debye):
    X=              1.5414    Y=             -0.2786    Z=              0.2370  Tot=              1.5842
 Quadrupole moment (field-independent basis, Debye-Ang):
   XX=            -69.0412   YY=            -68.0855   ZZ=            -67.7796
   XY=             -0.6875   XZ=             -0.1231   YZ=              0.5013
 Traceless Quadrupole moment (field-independent basis, Debye-Ang):
   XX=             -0.7391   YY=              0.2166   ZZ=              0.5225
   XY=             -0.6875   XZ=             -0.1231   YZ=              0.5013
 Octapole moment (field-independent basis, Debye-Ang**2):
  XXX=             55.1710  YYY=             20.3556  ZZZ=              1.6539  XYY=             14.6973
  XXY=              5.4167  XXZ=             -2.8476  XZZ=             26.2143  YZZ=            -20.3787
  YYZ=              2.3532  XYZ=             -3.9502
 Hexadecapole moment (field-independent basis, Debye-Ang**3):
 XXXX=          -1857.0029 YYYY=           -324.2525 ZZZZ=           -343.3057 XXXY=            -96.4956
 XXXZ=              8.4958 YYYX=             23.6093 YYYZ=            -14.8839 ZZZX=             33.7561
 ZZZY=              5.9883 XXYY=           -347.2614 XXZZ=           -279.8521 YYZZ=           -125.9627
 XXYZ=             46.4052 YYXZ=            -37.1358 ZZXY=             -3.2644
 N-N= 6.363235269374D+02 E-N=-3.310215020004D+03  KE= 8.306962325462D+02
 PrsmSu:  requested number of processors reduced to:   2 ShMem   1 Linda.
 PrsmSu:  requested number of processors reduced to:  10 ShMem   1 Linda.
   1 Symmetry operations used in ECPInt.
 ECPInt:  NShTT=    3321 NPrTT=   20810 LenC2=    3183 LenP2D=   15096.
 LDataN:  DoStor=T MaxTD1= 9 Len=  602
 Calling FoFJK, ICntrl=      2127 FMM=F ISym2X=0 I1Cent= 0 IOpClX= 0 NMat=1 NMatS=1 NMatT=0.
 CoulSu:  requested number of processors reduced to:  10 ShMem   1 Linda.
 Defaulting to unpruned grid for atomic number  40.
 Defaulting to unpruned grid for atomic number  40.
 Defaulting to unpruned grid for atomic number  40.
 Defaulting to unpruned grid for atomic number  40.
 Defaulting to unpruned grid for atomic number  40.
 Defaulting to unpruned grid for atomic number  40.
 Defaulting to unpruned grid for atomic number  40.
 Defaulting to unpruned grid for atomic number  40.
 Defaulting to unpruned grid for atomic number  40.
 Defaulting to unpruned grid for atomic number  40.
 Defaulting to unpruned grid for atomic number  40.
 Defaulting to unpruned grid for atomic number  40.
 Defaulting to unpruned grid for atomic number  40.
 Defaulting to unpruned grid for atomic number  40.
 Defaulting to unpruned grid for atomic number  40.
 Defaulting to unpruned grid for atomic number  40.
 ***** Axes restored to original set *****
 -------------------------------------------------------------------
 Center     Atomic                   Forces (Hartrees/Bohr)
 Number     Number              X              Y              Z
 -------------------------------------------------------------------
      1       40           0.003488963    0.000336823    0.000201583
      2       14          -0.001782788   -0.001827161   -0.000039138
      3        8          -0.001638683    0.001007782   -0.000230228
      4        8           0.000000046    0.000575417    0.000140511
      5        8           0.000158062    0.000352666   -0.000074511
      6        8           0.000005991    0.000257239   -0.000009650
      7        1           0.000075330   -0.000097941   -0.000052965
      8        1           0.000015348   -0.000003240    0.000001156
      9        1           0.000039551    0.000112149    0.000070315
     10        8          -0.000096413   -0.000141508   -0.000114945
     11        1          -0.000011748    0.000011754    0.000034155
     12        8           0.000017335    0.000009270    0.000119007
     13        1          -0.000029500   -0.000010382   -0.000040716
     14        8          -0.000176212   -0.000583435   -0.000120242
     15        1          -0.000065281    0.000000567    0.000115669
 -------------------------------------------------------------------
 Cartesian Forces:  Max     0.003488963 RMS     0.000725311

 GradGradGradGradGradGradGradGradGradGradGradGradGradGradGradGradGradGrad
 Berny optimization.
 FormGI is forming the generalized inverse of G from B-inverse, IUseBI=4.
 Internal  Forces:  Max     0.003085435 RMS     0.000614575
 Search for a local minimum.
 Step number   1 out of a maximum of   62
 All quantities printed in internal units (Hartrees-Bohrs-Radians)
 Mixed Optimization -- En-DIIS/RFO-DIIS
 Second derivative matrix not updated -- first step.
 ITU=  0
     Eigenvalues ---    0.00230   0.01596   0.01596   0.01597   0.01597
     Eigenvalues ---    0.01598   0.01598   0.03522   0.03617   0.03636
     Eigenvalues ---    0.03969   0.11780   0.12039   0.12694   0.15564
     Eigenvalues ---    0.15873   0.16000   0.16000   0.16000   0.19514
     Eigenvalues ---    0.20181   0.21252   0.21482   0.21527   0.21945
     Eigenvalues ---    0.25000   0.25000   0.25000   0.40909   0.41958
     Eigenvalues ---    0.42173   0.46041   0.54665   0.54703   0.54725
     Eigenvalues ---    0.56111   0.56113   0.561381000.000001000.00000
     Eigenvalues --- 1000.000001000.000001000.000001000.000001000.00000
     Eigenvalues --- 1000.000001000.000001000.000001000.000001000.00000
     Eigenvalues --- 1000.000001000.00000
 RFO step:  Lambda=-1.13277197D-04 EMin= 2.30000000D-03
 Linear search not attempted -- first point.
 Iteration  1 RMS(Cart)=  0.07680410 RMS(Int)=  0.00106517
 Iteration  2 RMS(Cart)=  0.00175867 RMS(Int)=  0.00000068
 Iteration  3 RMS(Cart)=  0.00000063 RMS(Int)=  0.00000062
 Iteration  1 RMS(Cart)=  0.00000058 RMS(Int)=  0.00000021
 Variable       Old X    -DE/DX   Delta X   Delta X   Delta X     New X
                                 (Linear)    (Quad)   (Total)
    R1        3.72697   0.00309   0.00000   0.01652   0.01652   3.74349
    R2        3.65948   0.00009   0.00000   0.00044   0.00044   3.65991
    R3        3.66086   0.00007   0.00000   0.00032   0.00032   3.66118
    R4        3.64668  -0.00059   0.00000  -0.00269  -0.00269   3.64399
    R5        3.07641   0.00109   0.00000   0.00200   0.00200   3.07841
    R6        3.12404   0.00071   0.00000   0.00169   0.00169   3.12573
    R7        3.14036  -0.00037   0.00000  -0.00089  -0.00089   3.13947
    R8        3.12676   0.00003   0.00000   0.00008   0.00008   3.12685
    R9        1.82097   0.00003   0.00000   0.00005   0.00005   1.82102
   R10        1.82078   0.00003   0.00000   0.00006   0.00006   1.82084
   R11        1.82131  -0.00001   0.00000  -0.00001  -0.00001   1.82130
   R12        1.80835  -0.00003   0.00000  -0.00006  -0.00006   1.80828
   R13        1.80858  -0.00005   0.00000  -0.00009  -0.00009   1.80849
   R14        1.80856  -0.00004   0.00000  -0.00007  -0.00007   1.80849
    A1        1.88835  -0.00041   0.00000  -0.00181  -0.00182   1.88653
    A2        1.88384   0.00009   0.00000   0.00054   0.00054   1.88439
    A3        1.91625  -0.00034   0.00000  -0.00139  -0.00139   1.91486
    A4        1.92387   0.00018   0.00000   0.00080   0.00080   1.92467
    A5        1.92200   0.00017   0.00000   0.00026   0.00026   1.92226
    A6        1.92870   0.00030   0.00000   0.00152   0.00152   1.93022
    A7        0.28742  -0.00122   0.00000   0.00000  -0.00000   0.28741
    A8        1.85658  -0.00017   0.00000  -0.00136  -0.00136   1.85523
    A9        1.91682   0.00000   0.00000   0.00034   0.00034   1.91716
   A10        2.00442   0.00016   0.00000   0.00094   0.00094   2.00536
   A11        1.98569   0.00009   0.00000   0.00031   0.00031   1.98600
   A12        1.86877  -0.00020   0.00000  -0.00130  -0.00130   1.86747
   A13        1.83492   0.00012   0.00000   0.00111   0.00110   1.83602
   A14        2.61800   0.00233   0.00000   0.00091   0.00091   2.61890
   A15        2.02425   0.00025   0.00000   0.00154   0.00154   2.02579
   A16        2.02687  -0.00005   0.00000  -0.00032  -0.00032   2.02655
   A17        2.01602  -0.00001   0.00000  -0.00006  -0.00006   2.01596
   A18        3.25840   0.00002   0.00000   0.00131   0.00131   3.25971
   A19        3.31991  -0.00002   0.00000  -0.00097  -0.00097   3.31894
   A20        3.06124  -0.00017   0.00000  -0.01044  -0.01044   3.05080
   A21        3.00068   0.00002   0.00000   0.00116   0.00116   3.00184
   A22        3.22812  -0.00001   0.00000  -0.00087  -0.00087   3.22725
   A23        3.13026  -0.00015   0.00000  -0.00929  -0.00929   3.12096
    D1       -2.38083  -0.00009   0.00000  -0.07868  -0.07868  -2.45951
    D2        1.82065  -0.00013   0.00000  -0.07893  -0.07893   1.74173
    D3       -0.28278  -0.00035   0.00000  -0.08029  -0.08028  -0.36307
    D4       -0.52207  -0.00005   0.00000  -0.00282  -0.00282  -0.52489
    D5       -2.67827  -0.00005   0.00000  -0.00254  -0.00254  -2.68082
    D6        1.54171  -0.00031   0.00000  -0.00483  -0.00483   1.53689
    D7        2.89579   0.00002   0.00000  -0.00003  -0.00003   2.89576
    D8       -1.27479  -0.00005   0.00000  -0.00035  -0.00035  -1.27514
    D9        0.74459   0.00003   0.00000   0.00034   0.00034   0.74493
   D10        0.61660  -0.00021   0.00000  -0.00304  -0.00304   0.61356
   D11       -1.46200  -0.00005   0.00000  -0.00175  -0.00175  -1.46375
   D12        2.78200   0.00006   0.00000  -0.00103  -0.00103   2.78097
   D13        1.54676   0.00014   0.00000   0.00105   0.00106   1.54782
   D14       -2.67951  -0.00011   0.00000  -0.00098  -0.00098  -2.68050
   D15       -0.56200  -0.00005   0.00000  -0.00071  -0.00071  -0.56271
         Item               Value     Threshold  Converged?
 Maximum Force            0.003227     0.000450     NO 
 RMS     Force            0.000511     0.000300     NO 
 Maximum Displacement     0.205975     0.001800     NO 
 RMS     Displacement     0.076990     0.001200     NO 
 Predicted change in Energy=-5.773634D-05
 GradGradGradGradGradGradGradGradGradGradGradGradGradGradGradGradGradGrad

                          Input orientation:                          
 ---------------------------------------------------------------------
 Center     Atomic      Atomic             Coordinates (Angstroms)
 Number     Number       Type             X           Y           Z
 ---------------------------------------------------------------------
      1         40           0        1.384542   -0.012840   -0.022958
      2         14           0       -2.087387    0.326849    0.001940
      3          8           0       -0.577596   -0.284851   -0.006946
      4          8           0       -1.995689    1.777797    0.790779
      5          8           0       -3.130364   -0.755725    0.709236
      6          8           0       -2.725299    0.629321   -1.494544
      7          1           0       -2.773333   -1.273678    1.439083
      8          1           0       -3.195003   -0.107039   -1.902032
      9          1           0       -2.758266    2.359495    0.697447
     10          8           0        2.167693   -1.350670   -1.183932
     11          1           0        2.679198   -1.911001   -1.767073
     12          8           0        2.033325   -0.233688    1.789187
     13          1           0        2.488127   -0.228019    2.631205
     14          8           0        1.790852    1.754655   -0.678151
     15          1           0        1.919279    2.659754   -0.961301
 ---------------------------------------------------------------------
                    Distance matrix (angstroms):
                    1          2          3          4          5
     1  Zr   0.000000
     2  Si   3.488595   0.000000
     3  O    1.980967   1.629025   0.000000
     4  O    3.910820   1.654063   2.627141   0.000000
     5  O    4.633828   1.661336   2.692817   2.777205   0.000000
     6  O    4.412338   1.654656   2.767902   2.659705   2.634213
     7  H    4.584234   2.257784   2.808921   3.215047   0.963547
     8  H    4.950961   2.245035   3.236322   3.498883   2.691411
     9  H    4.828024   2.250657   3.499151   0.963643   3.137386
    10  O    1.936743   4.725047   3.171416   5.569609   5.657513
    11  H    2.884630   5.554972   4.043405   6.481081   6.420107
    12  O    1.937412   4.526446   3.169483   4.612575   5.301178
    13  H    2.882497   5.306245   4.044964   5.245482   5.961533
    14  O    1.928317   4.188304   3.196819   4.061550   5.696071
    15  H    2.882566   4.735361   3.976918   4.378882   6.321003
                    6          7          8          9         10
     6  O    0.000000
     7  H    3.497125   0.000000
     8  H    0.963791   3.563972   0.000000
     9  H    2.792744   3.708126   3.609961   0.000000
    10  O    5.287553   5.594629   5.551648   6.447479   0.000000
    11  H    5.977967   6.357335   6.146440   7.340097   0.956902
    12  O    5.845697   4.930326   6.401292   5.556604   3.178858
    13  H    6.703480   5.495227   7.270683   6.161112   3.989774
    14  O    4.725304   5.872416   5.461002   4.790885   3.168733
    15  H    5.096971   6.576803   5.890331   4.972025   4.024273
                   11         12         13         14         15
    11  H    0.000000
    12  O    3.984661   0.000000
    13  H    4.713151   0.957012   0.000000
    14  O    3.925806   3.178059   3.920335   0.000000
    15  H    4.703036   3.993770   4.644236   0.957011   0.000000
 Stoichiometry    H6O7SiZr
 Framework group  C1[X(H6O7SiZr)]
 Deg. of freedom    39
 Full point group                 C1      NOp   1
 Largest Abelian subgroup         C1      NOp   1
 Largest concise Abelian subgroup C1      NOp   1
                         Standard orientation:                         
 ---------------------------------------------------------------------
 Center     Atomic      Atomic             Coordinates (Angstroms)
 Number     Number       Type             X           Y           Z
 ---------------------------------------------------------------------
      1         40           0        1.351344   -0.024021   -0.013826
      2         14           0       -2.137069   -0.052369    0.007843
      3          8           0       -0.571505   -0.499072   -0.048628
      4          8           0       -2.197950    1.308257    0.946413
      5          8           0       -3.060970   -1.306617    0.585167
      6          8           0       -2.803009    0.339155   -1.455414
      7          1           0       -2.651716   -1.859100    1.260220
      8          1           0       -3.192950   -0.394682   -1.943597
      9          1           0       -3.017259    1.813969    0.906458
     10          8           0        2.270447   -1.142164   -1.300674
     11          1           0        2.837894   -1.581087   -1.933931
     12          8           0        2.019514   -0.367205    1.772046
     13          1           0        2.471137   -0.403612    2.615007
     14          8           0        1.570327    1.835690   -0.474183
     15          1           0        1.603259    2.774157   -0.658752
 ---------------------------------------------------------------------
 Rotational constants (GHZ):           1.6466730           0.4899733           0.4885369
 Basis read from rwf:  (5D, 7F)
 Pseudo-potential data read from rwf file.
 There are   300 symmetry adapted cartesian basis functions of A   symmetry.
 There are   266 symmetry adapted basis functions of A   symmetry.
   266 basis functions,   576 primitive gaussians,   300 cartesian basis functions
    44 alpha electrons       44 beta electrons
       nuclear repulsion energy       635.7640235950 Hartrees.
 NAtoms=   15 NActive=   15 NUniq=   15 SFac= 1.00D+00 NAtFMM=   60 NAOKFM=F Big=F
 Integral buffers will be    131072 words long.
 Raffenetti 2 integral format.
 Two-electron integral symmetry is turned on.
 Nuclear repulsion after empirical dispersion term =      635.7536818439 Hartrees.
 One-electron integrals computed using PRISM.
 PrsmSu:  requested number of processors reduced to:   4 ShMem   1 Linda.
   1 Symmetry operations used in ECPInt.
 ECPInt:  NShTT=    3321 NPrTT=   20810 LenC2=    3181 LenP2D=   15080.
 LDataN:  DoStor=T MaxTD1= 8 Len=  415
 NBasis=   266 RedAO= T EigKep=  1.07D-04  NBF=   266
 NBsUse=   266 1.00D-06 EigRej= -1.00D+00 NBFU=   266
 Defaulting to unpruned grid for atomic number  40.
 Initial guess from the checkpoint file:  "/localscratch/sarashs.35250432.0/Gau-11302.chk"
 B after Tr=    -0.000000   -0.000000   -0.000000
         Rot=    0.999092    0.042567    0.001699    0.000206 Ang=   4.88 deg.
 ExpMin= 1.01D-02 ExpMax= 1.61D+04 ExpMxC= 2.43D+03 IAcc=3 IRadAn=         5 AccDes= 0.00D+00
 Harris functional with IExCor=  402 and IRadAn=       5 diagonalized for initial guess.
 HarFok:  IExCor=  402 AccDes= 0.00D+00 IRadAn=         5 IDoV= 1 UseB2=F ITyADJ=14
 ICtDFT=  3500011 ScaDFX=  1.000000  1.000000  1.000000  1.000000
 Defaulting to unpruned grid for atomic number  40.
 FoFCou: FMM=F IPFlag=           0 FMFlag=      100000 FMFlg1=           0
         NFxFlg=           0 DoJE=T BraDBF=F KetDBF=T FulRan=T
         wScrn=  0.000000 ICntrl=       500 IOpCl=  0 I1Cent=   200000004 NGrid=           0
         NMat0=    1 NMatS0=      1 NMatT0=    0 NMatD0=    1 NMtDS0=    0 NMtDT0=    0
 Petite list used in FoFCou.
 Requested convergence on RMS density matrix=1.00D-08 within 128 cycles.
 Requested convergence on MAX density matrix=1.00D-06.
 Requested convergence on             energy=1.00D-06.
 No special actions if energy rises.
 Defaulting to unpruned grid for atomic number  40.
 Defaulting to unpruned grid for atomic number  40.
 Defaulting to unpruned grid for atomic number  40.
 Defaulting to unpruned grid for atomic number  40.
 Defaulting to unpruned grid for atomic number  40.
 Defaulting to unpruned grid for atomic number  40.
 Defaulting to unpruned grid for atomic number  40.
 Defaulting to unpruned grid for atomic number  40.
 Defaulting to unpruned grid for atomic number  40.
 Defaulting to unpruned grid for atomic number  40.
 Defaulting to unpruned grid for atomic number  40.
 Defaulting to unpruned grid for atomic number  40.
 Defaulting to unpruned grid for atomic number  40.
 Defaulting to unpruned grid for atomic number  40.
 Defaulting to unpruned grid for atomic number  40.
 Defaulting to unpruned grid for atomic number  40.
 SCF Done:  E(RB3LYP) =  -867.127628644     A.U. after   10 cycles
            NFock= 10  Conv=0.83D-08     -V/T= 2.0439
 PrsmSu:  requested number of processors reduced to:   2 ShMem   1 Linda.
 PrsmSu:  requested number of processors reduced to:  10 ShMem   1 Linda.
   1 Symmetry operations used in ECPInt.
 ECPInt:  NShTT=    3321 NPrTT=   20810 LenC2=    3181 LenP2D=   15080.
 LDataN:  DoStor=T MaxTD1= 9 Len=  602
 Calling FoFJK, ICntrl=      2127 FMM=F ISym2X=0 I1Cent= 0 IOpClX= 0 NMat=1 NMatS=1 NMatT=0.
 CoulSu:  requested number of processors reduced to:  10 ShMem   1 Linda.
 Defaulting to unpruned grid for atomic number  40.
 Defaulting to unpruned grid for atomic number  40.
 Defaulting to unpruned grid for atomic number  40.
 Defaulting to unpruned grid for atomic number  40.
 Defaulting to unpruned grid for atomic number  40.
 Defaulting to unpruned grid for atomic number  40.
 Defaulting to unpruned grid for atomic number  40.
 Defaulting to unpruned grid for atomic number  40.
 Defaulting to unpruned grid for atomic number  40.
 Defaulting to unpruned grid for atomic number  40.
 Defaulting to unpruned grid for atomic number  40.
 Defaulting to unpruned grid for atomic number  40.
 Defaulting to unpruned grid for atomic number  40.
 Defaulting to unpruned grid for atomic number  40.
 Defaulting to unpruned grid for atomic number  40.
 Defaulting to unpruned grid for atomic number  40.
 ***** Axes restored to original set *****
 -------------------------------------------------------------------
 Center     Atomic                   Forces (Hartrees/Bohr)
 Number     Number              X              Y              Z
 -------------------------------------------------------------------
      1       40          -0.000398202   -0.000885204    0.000682501
      2       14          -0.000250757   -0.001411334    0.000057290
      3        8           0.000887313    0.001531939   -0.000287411
      4        8          -0.000022921    0.000348717    0.000071447
      5        8          -0.000038885    0.000177634    0.000023527
      6        8          -0.000083851    0.000140496   -0.000034581
      7        1           0.000070722   -0.000063021   -0.000098570
      8        1           0.000005372   -0.000007852   -0.000011292
      9        1           0.000043634    0.000012344    0.000030815
     10        8          -0.000164494    0.000079616    0.000106481
     11        1           0.000032970    0.000009644    0.000003326
     12        8          -0.000004709    0.000075950   -0.000459044
     13        1          -0.000023097    0.000001690    0.000041316
     14        8          -0.000074403   -0.000093317   -0.000166373
     15        1           0.000021307    0.000082699    0.000040567
 -------------------------------------------------------------------
 Cartesian Forces:  Max     0.001531939 RMS     0.000400251

 GradGradGradGradGradGradGradGradGradGradGradGradGradGradGradGradGradGrad
 Berny optimization.
 Using GEDIIS/GDIIS optimizer.
 FormGI is forming the generalized inverse of G from B-inverse, IUseBI=4.
 Internal  Forces:  Max     0.001767251 RMS     0.000322028
 Search for a local minimum.
 Step number   2 out of a maximum of   62
 All quantities printed in internal units (Hartrees-Bohrs-Radians)
 Mixed Optimization -- En-DIIS/RFO-DIIS
 Swapping is turned off.
 Update second derivatives using D2CorX and points    1    2
 DE= -6.85D-05 DEPred=-5.77D-05 R= 1.19D+00
 TightC=F SS=  1.41D+00  RLast= 1.39D-01 DXNew= 5.0454D-01 4.1813D-01
 Trust test= 1.19D+00 RLast= 1.39D-01 DXMaxT set to 4.18D-01
 ITU=  1  0
     Eigenvalues ---    0.00133   0.01561   0.01596   0.01596   0.01598
     Eigenvalues ---    0.01598   0.01610   0.03501   0.03617   0.03636
     Eigenvalues ---    0.03935   0.11684   0.12021   0.12699   0.15446
     Eigenvalues ---    0.15876   0.15975   0.16000   0.16002   0.20032
     Eigenvalues ---    0.21072   0.21259   0.21519   0.21878   0.24471
     Eigenvalues ---    0.24883   0.25000   0.28352   0.40841   0.41879
     Eigenvalues ---    0.41982   0.47193   0.54665   0.54707   0.54728
     Eigenvalues ---    0.56111   0.56132   0.561471000.000001000.00000
     Eigenvalues --- 1000.000001000.000001000.000001000.000001000.00000
     Eigenvalues --- 1000.000001000.000001000.000001000.000001000.00000
     Eigenvalues --- 1000.000001000.00000
 En-DIIS/RFO-DIIS/Sim-DIIS IScMMF=       -3 using points:     2    1
 RFO step:  Lambda=-4.98855570D-05.
 DidBck=F Rises=F RFO-DIIS coefs:    2.32030   -1.32030
 Iteration  1 RMS(Cart)=  0.10249946 RMS(Int)=  0.00189466
 Iteration  2 RMS(Cart)=  0.00313790 RMS(Int)=  0.00000178
 Iteration  3 RMS(Cart)=  0.00000205 RMS(Int)=  0.00000152
 Iteration  4 RMS(Cart)=  0.00000000 RMS(Int)=  0.00000152
 Iteration  1 RMS(Cart)=  0.00000199 RMS(Int)=  0.00000072
 Iteration  2 RMS(Cart)=  0.00000152 RMS(Int)=  0.00000078
 Iteration  3 RMS(Cart)=  0.00000116 RMS(Int)=  0.00000090
 Iteration  4 RMS(Cart)=  0.00000089 RMS(Int)=  0.00000102
 Variable       Old X    -DE/DX   Delta X   Delta X   Delta X     New X
                                 (Linear)    (Quad)   (Total)
    R1        3.74349  -0.00067   0.02181  -0.01964   0.00217   3.74565
    R2        3.65991  -0.00018   0.00058  -0.00154  -0.00096   3.65896
    R3        3.66118  -0.00041   0.00042  -0.00283  -0.00241   3.65877
    R4        3.64399   0.00002  -0.00355   0.00271  -0.00084   3.64315
    R5        3.07841  -0.00009   0.00264  -0.00258   0.00006   3.07848
    R6        3.12573   0.00037   0.00223  -0.00046   0.00177   3.12749
    R7        3.13947  -0.00013  -0.00118   0.00045  -0.00073   3.13874
    R8        3.12685   0.00010   0.00011   0.00023   0.00034   3.12718
    R9        1.82102  -0.00003   0.00006  -0.00012  -0.00006   1.82097
   R10        1.82084  -0.00001   0.00008  -0.00010  -0.00001   1.82083
   R11        1.82130   0.00001  -0.00001   0.00003   0.00002   1.82132
   R12        1.80828   0.00001  -0.00008   0.00008   0.00000   1.80828
   R13        1.80849   0.00003  -0.00012   0.00015   0.00003   1.80852
   R14        1.80849   0.00007  -0.00010   0.00023   0.00014   1.80863
    A1        1.88653  -0.00019  -0.00240   0.00054  -0.00186   1.88467
    A2        1.88439   0.00036   0.00072   0.00165   0.00237   1.88676
    A3        1.91486  -0.00018  -0.00184   0.00029  -0.00155   1.91331
    A4        1.92467  -0.00003   0.00106  -0.00078   0.00028   1.92495
    A5        1.92226   0.00000   0.00034  -0.00072  -0.00039   1.92188
    A6        1.93022   0.00004   0.00201  -0.00090   0.00111   1.93132
    A7        0.28741  -0.00100  -0.00000   0.00000  -0.00000   0.28741
    A8        1.85523  -0.00011  -0.00179   0.00039  -0.00140   1.85382
    A9        1.91716   0.00001   0.00045   0.00006   0.00051   1.91767
   A10        2.00536   0.00015   0.00124   0.00027   0.00151   2.00687
   A11        1.98600   0.00008   0.00040   0.00009   0.00050   1.98649
   A12        1.86747  -0.00012  -0.00172   0.00013  -0.00159   1.86588
   A13        1.83602  -0.00001   0.00146  -0.00093   0.00053   1.83655
   A14        2.61890   0.00177   0.00120  -0.00106   0.00014   2.61904
   A15        2.02579   0.00008   0.00203  -0.00079   0.00125   2.02704
   A16        2.02655  -0.00008  -0.00042  -0.00034  -0.00076   2.02579
   A17        2.01596   0.00001  -0.00008   0.00013   0.00004   2.01600
   A18        3.25971   0.00005   0.00172   0.00327   0.00499   3.26470
   A19        3.31894  -0.00007  -0.00128  -0.00493  -0.00621   3.31272
   A20        3.05080  -0.00002  -0.01378   0.00834  -0.00544   3.04535
   A21        3.00184  -0.00002   0.00153  -0.00286  -0.00134   3.00050
   A22        3.22725   0.00002  -0.00115   0.00226   0.00111   3.22836
   A23        3.12096  -0.00011  -0.01227  -0.00047  -0.01274   3.10823
    D1       -2.45951  -0.00004  -0.10388  -0.00165  -0.10553  -2.56504
    D2        1.74173  -0.00010  -0.10421  -0.00194  -0.10615   1.63558
    D3       -0.36307  -0.00027  -0.10600  -0.00203  -0.10802  -0.47109
    D4       -0.52489  -0.00001  -0.00372   0.00083  -0.00289  -0.52778
    D5       -2.68082  -0.00005  -0.00336   0.00044  -0.00291  -2.68373
    D6        1.53689  -0.00015  -0.00637   0.00142  -0.00496   1.53193
    D7        2.89576   0.00002  -0.00004   0.00012   0.00008   2.89583
    D8       -1.27514   0.00002  -0.00047   0.00051   0.00004  -1.27510
    D9        0.74493  -0.00004   0.00045  -0.00050  -0.00005   0.74488
   D10        0.61356  -0.00016  -0.00401  -0.00054  -0.00455   0.60900
   D11       -1.46375  -0.00009  -0.00231  -0.00113  -0.00345  -1.46720
   D12        2.78097   0.00003  -0.00136  -0.00075  -0.00211   2.77886
   D13        1.54782   0.00007   0.00139  -0.00043   0.00096   1.54878
   D14       -2.68050  -0.00006  -0.00130   0.00030  -0.00099  -2.68149
   D15       -0.56271  -0.00003  -0.00093  -0.00001  -0.00095  -0.56365
         Item               Value     Threshold  Converged?
 Maximum Force            0.000558     0.000450     NO 
 RMS     Force            0.000152     0.000300     YES
 Maximum Displacement     0.270139     0.001800     NO 
 RMS     Displacement     0.102932     0.001200     NO 
 Predicted change in Energy=-2.577130D-05
 GradGradGradGradGradGradGradGradGradGradGradGradGradGradGradGradGradGrad

                          Input orientation:                          
 ---------------------------------------------------------------------
 Center     Atomic      Atomic             Coordinates (Angstroms)
 Number     Number       Type             X           Y           Z
 ---------------------------------------------------------------------
      1         40           0        1.385451   -0.011756   -0.039374
      2         14           0       -2.087651    0.325589    0.010713
      3          8           0       -0.577843   -0.284254   -0.038328
      4          8           0       -1.993571    1.722105    0.893840
      5          8           0       -3.131038   -0.800247    0.645207
      6          8           0       -2.726599    0.729266   -1.461451
      7          1           0       -2.772598   -1.367356    1.336812
      8          1           0       -3.197285    0.022591   -1.917493
      9          1           0       -2.754951    2.310318    0.840399
     10          8           0        2.180695   -1.397157   -1.133568
     11          1           0        2.703400   -1.983464   -1.680091
     12          8           0        2.013653   -0.154761    1.786424
     13          1           0        2.450141   -0.108934    2.636883
     14          8           0        1.797612    1.725596   -0.766301
     15          1           0        1.930664    2.622824   -1.071732
 ---------------------------------------------------------------------
                    Distance matrix (angstroms):
                    1          2          3          4          5
     1  Zr   0.000000
     2  Si   3.489806   0.000000
     3  O    1.982115   1.629059   0.000000
     4  O    3.910876   1.654998   2.626538   0.000000
     5  O    4.635628   1.660948   2.693005   2.778112   0.000000
     6  O    4.413657   1.654834   2.769414   2.659032   2.634576
     7  H    4.584857   2.256935   2.807324   3.216811   0.963540
     8  H    4.952775   2.245234   3.238347   3.498695   2.692375
     9  H    4.827935   2.252292   3.499110   0.963614   3.139292
    10  O    1.936236   4.742995   3.169800   5.591482   5.633369
    11  H    2.883847   5.580744   4.043421   6.512902   6.391219
    12  O    1.936137   4.494950   3.172119   4.514109   5.309131
    13  H    2.881901   5.260905   4.044276   5.112482   5.966091
    14  O    1.927872   4.202265   3.195658   4.138737   5.715228
    15  H    2.881672   4.753507   3.976385   4.480445   6.347135
                    6          7          8          9         10
     6  O    0.000000
     7  H    3.496887   0.000000
     8  H    0.963799   3.564101   0.000000
     9  H    2.792677   3.711068   3.610446   0.000000
    10  O    5.358238   5.535230   5.617196   6.480935   0.000000
    11  H    6.073844   6.282343   6.236881   7.388033   0.956903
    12  O    5.813793   4.957897   6.395649   5.450796   3.177704
    13  H    6.655640   5.527278   7.256242   6.014409   3.993546
    14  O    4.684484   5.905612   5.401339   4.863046   3.167526
    15  H    5.042573   6.621427   5.811401   5.070394   4.028223
                   11         12         13         14         15
    11  H    0.000000
    12  O    3.979526   0.000000
    13  H    4.713200   0.957027   0.000000
    14  O    3.925887   3.177865   3.920836   0.000000
    15  H    4.710107   3.986342   4.635319   0.957084   0.000000
 Stoichiometry    H6O7SiZr
 Framework group  C1[X(H6O7SiZr)]
 Deg. of freedom    39
 Full point group                 C1      NOp   1
 Largest Abelian subgroup         C1      NOp   1
 Largest concise Abelian subgroup C1      NOp   1
                         Standard orientation:                         
 ---------------------------------------------------------------------
 Center     Atomic      Atomic             Coordinates (Angstroms)
 Number     Number       Type             X           Y           Z
 ---------------------------------------------------------------------
      1         40           0        1.352047   -0.024486   -0.012961
      2         14           0       -2.137566   -0.053178    0.009924
      3          8           0       -0.571826   -0.501125   -0.030513
      4          8           0       -2.197193    1.338570    0.903514
      5          8           0       -3.062092   -1.287028    0.627671
      6          8           0       -2.803901    0.292840   -1.464778
      7          1           0       -2.651549   -1.818859    1.318338
      8          1           0       -3.194394   -0.455665   -1.929713
      9          1           0       -3.015590    1.844199    0.847691
     10          8           0        2.296540   -1.310383   -1.109963
     11          1           0        2.882022   -1.834429   -1.656085
     12          8           0        1.977642   -0.115162    1.817076
     13          1           0        2.400335   -0.030513    2.671515
     14          8           0        1.585468    1.752104   -0.724251
     15          1           0        1.626114    2.660691   -1.022289
 ---------------------------------------------------------------------
 Rotational constants (GHZ):           1.6472230           0.4898608           0.4883722
 Basis read from rwf:  (5D, 7F)
 Pseudo-potential data read from rwf file.
 There are   300 symmetry adapted cartesian basis functions of A   symmetry.
 There are   266 symmetry adapted basis functions of A   symmetry.
   266 basis functions,   576 primitive gaussians,   300 cartesian basis functions
    44 alpha electrons       44 beta electrons
       nuclear repulsion energy       635.7261280904 Hartrees.
 NAtoms=   15 NActive=   15 NUniq=   15 SFac= 1.00D+00 NAtFMM=   60 NAOKFM=F Big=F
 Integral buffers will be    131072 words long.
 Raffenetti 2 integral format.
 Two-electron integral symmetry is turned on.
 Nuclear repulsion after empirical dispersion term =      635.7157936730 Hartrees.
 One-electron integrals computed using PRISM.
 PrsmSu:  requested number of processors reduced to:   4 ShMem   1 Linda.
   1 Symmetry operations used in ECPInt.
 ECPInt:  NShTT=    3321 NPrTT=   20810 LenC2=    3187 LenP2D=   15084.
 LDataN:  DoStor=T MaxTD1= 8 Len=  415
 NBasis=   266 RedAO= T EigKep=  1.06D-04  NBF=   266
 NBsUse=   266 1.00D-06 EigRej= -1.00D+00 NBFU=   266
 Defaulting to unpruned grid for atomic number  40.
 Initial guess from the checkpoint file:  "/localscratch/sarashs.35250432.0/Gau-11302.chk"
 B after Tr=    -0.000000   -0.000000    0.000000
         Rot=    0.998825    0.048409    0.002232    0.000123 Ang=   5.56 deg.
 ExpMin= 1.01D-02 ExpMax= 1.61D+04 ExpMxC= 2.43D+03 IAcc=3 IRadAn=         5 AccDes= 0.00D+00
 Harris functional with IExCor=  402 and IRadAn=       5 diagonalized for initial guess.
 HarFok:  IExCor=  402 AccDes= 0.00D+00 IRadAn=         5 IDoV= 1 UseB2=F ITyADJ=14
 ICtDFT=  3500011 ScaDFX=  1.000000  1.000000  1.000000  1.000000
 Defaulting to unpruned grid for atomic number  40.
 FoFCou: FMM=F IPFlag=           0 FMFlag=      100000 FMFlg1=           0
         NFxFlg=           0 DoJE=T BraDBF=F KetDBF=T FulRan=T
         wScrn=  0.000000 ICntrl=       500 IOpCl=  0 I1Cent=   200000004 NGrid=           0
         NMat0=    1 NMatS0=      1 NMatT0=    0 NMatD0=    1 NMtDS0=    0 NMtDT0=    0
 Petite list used in FoFCou.
 Requested convergence on RMS density matrix=1.00D-08 within 128 cycles.
 Requested convergence on MAX density matrix=1.00D-06.
 Requested convergence on             energy=1.00D-06.
 No special actions if energy rises.
 Defaulting to unpruned grid for atomic number  40.
 Defaulting to unpruned grid for atomic number  40.
 Defaulting to unpruned grid for atomic number  40.
 Defaulting to unpruned grid for atomic number  40.
 Defaulting to unpruned grid for atomic number  40.
 Defaulting to unpruned grid for atomic number  40.
 Defaulting to unpruned grid for atomic number  40.
 Defaulting to unpruned grid for atomic number  40.
 Defaulting to unpruned grid for atomic number  40.
 Defaulting to unpruned grid for atomic number  40.
 Defaulting to unpruned grid for atomic number  40.
 Defaulting to unpruned grid for atomic number  40.
 Defaulting to unpruned grid for atomic number  40.
 Defaulting to unpruned grid for atomic number  40.
 Defaulting to unpruned grid for atomic number  40.
 Defaulting to unpruned grid for atomic number  40.
 SCF Done:  E(RB3LYP) =  -867.127667007     A.U. after   10 cycles
            NFock= 10  Conv=0.83D-08     -V/T= 2.0439
 PrsmSu:  requested number of processors reduced to:   2 ShMem   1 Linda.
 PrsmSu:  requested number of processors reduced to:  10 ShMem   1 Linda.
   1 Symmetry operations used in ECPInt.
 ECPInt:  NShTT=    3321 NPrTT=   20810 LenC2=    3187 LenP2D=   15084.
 LDataN:  DoStor=T MaxTD1= 9 Len=  602
 Calling FoFJK, ICntrl=      2127 FMM=F ISym2X=0 I1Cent= 0 IOpClX= 0 NMat=1 NMatS=1 NMatT=0.
 CoulSu:  requested number of processors reduced to:  10 ShMem   1 Linda.
 Defaulting to unpruned grid for atomic number  40.
 Defaulting to unpruned grid for atomic number  40.
 Defaulting to unpruned grid for atomic number  40.
 Defaulting to unpruned grid for atomic number  40.
 Defaulting to unpruned grid for atomic number  40.
 Defaulting to unpruned grid for atomic number  40.
 Defaulting to unpruned grid for atomic number  40.
 Defaulting to unpruned grid for atomic number  40.
 Defaulting to unpruned grid for atomic number  40.
 Defaulting to unpruned grid for atomic number  40.
 Defaulting to unpruned grid for atomic number  40.
 Defaulting to unpruned grid for atomic number  40.
 Defaulting to unpruned grid for atomic number  40.
 Defaulting to unpruned grid for atomic number  40.
 Defaulting to unpruned grid for atomic number  40.
 Defaulting to unpruned grid for atomic number  40.
 ***** Axes restored to original set *****
 -------------------------------------------------------------------
 Center     Atomic                   Forces (Hartrees/Bohr)
 Number     Number              X              Y              Z
 -------------------------------------------------------------------
      1       40          -0.001266483   -0.000997810    0.000652704
      2       14           0.000026431   -0.000591810    0.000139559
      3        8           0.001073363    0.001396090   -0.000274280
      4        8           0.000044022   -0.000032902   -0.000065791
      5        8          -0.000106864    0.000041776    0.000081769
      6        8          -0.000032248   -0.000016055    0.000009121
      7        1           0.000039224   -0.000076521   -0.000081207
      8        1          -0.000002881   -0.000005585   -0.000014254
      9        1           0.000010181   -0.000032843   -0.000025551
     10        8          -0.000013917   -0.000169931   -0.000065821
     11        1           0.000042510    0.000012409   -0.000000114
     12        8           0.000224653    0.000015064   -0.000191768
     13        1          -0.000077941    0.000007711    0.000056548
     14        8          -0.000014692    0.000442363   -0.000220268
     15        1           0.000054642    0.000008043   -0.000000648
 -------------------------------------------------------------------
 Cartesian Forces:  Max     0.001396090 RMS     0.000394313

 GradGradGradGradGradGradGradGradGradGradGradGradGradGradGradGradGradGrad
 Berny optimization.
 Using GEDIIS/GDIIS optimizer.
 FormGI is forming the generalized inverse of G from B-inverse, IUseBI=4.
 Internal  Forces:  Max     0.001436388 RMS     0.000300210
 Search for a local minimum.
 Step number   3 out of a maximum of   62
 All quantities printed in internal units (Hartrees-Bohrs-Radians)
 Mixed Optimization -- En-DIIS/RFO-DIIS
 Swapping is turned off.
 Update second derivatives using D2CorX and points    1    2    3
 DE= -3.84D-05 DEPred=-2.58D-05 R= 1.49D+00
 TightC=F SS=  1.41D+00  RLast= 1.86D-01 DXNew= 7.0320D-01 5.5683D-01
 Trust test= 1.49D+00 RLast= 1.86D-01 DXMaxT set to 5.57D-01
 ITU=  1  1  0
     Eigenvalues ---    0.00072   0.01534   0.01596   0.01597   0.01598
     Eigenvalues ---    0.01599   0.01686   0.03474   0.03617   0.03636
     Eigenvalues ---    0.03971   0.11681   0.12026   0.12725   0.15395
     Eigenvalues ---    0.15874   0.15999   0.16001   0.16019   0.20010
     Eigenvalues ---    0.21212   0.21355   0.21609   0.22568   0.24392
     Eigenvalues ---    0.24853   0.25001   0.32630   0.41006   0.41965
     Eigenvalues ---    0.42499   0.48959   0.54666   0.54710   0.54728
     Eigenvalues ---    0.56112   0.56131   0.561491000.000001000.00000
     Eigenvalues --- 1000.000001000.000001000.000001000.000001000.00000
     Eigenvalues --- 1000.000001000.000001000.000001000.000001000.00000
     Eigenvalues --- 1000.000001000.00000
 En-DIIS/RFO-DIIS/Sim-DIIS IScMMF=       -3 using points:     3    2    1
 RFO step:  Lambda=-3.04710501D-05.
 DidBck=F Rises=F RFO-DIIS coefs:    1.62412   -0.20820   -0.41592
 Iteration  1 RMS(Cart)=  0.09536627 RMS(Int)=  0.00163616
 Iteration  2 RMS(Cart)=  0.00269825 RMS(Int)=  0.00000210
 Iteration  3 RMS(Cart)=  0.00000150 RMS(Int)=  0.00000198
 Iteration  4 RMS(Cart)=  0.00000000 RMS(Int)=  0.00000198
 Iteration  1 RMS(Cart)=  0.00000148 RMS(Int)=  0.00000054
 Iteration  2 RMS(Cart)=  0.00000113 RMS(Int)=  0.00000058
 Iteration  3 RMS(Cart)=  0.00000087 RMS(Int)=  0.00000067
 Variable       Old X    -DE/DX   Delta X   Delta X   Delta X     New X
                                 (Linear)    (Quad)   (Total)
    R1        3.74565  -0.00111   0.00822  -0.00775   0.00047   3.74612
    R2        3.65896   0.00016  -0.00042   0.00093   0.00052   3.65947
    R3        3.65877  -0.00008  -0.00137   0.00003  -0.00134   3.65743
    R4        3.64315   0.00050  -0.00164   0.00286   0.00122   3.64437
    R5        3.07848  -0.00028   0.00087  -0.00115  -0.00028   3.07820
    R6        3.12749  -0.00010   0.00181  -0.00079   0.00102   3.12851
    R7        3.13874   0.00007  -0.00083   0.00042  -0.00041   3.13832
    R8        3.12718   0.00001   0.00024  -0.00004   0.00020   3.12739
    R9        1.82097  -0.00003  -0.00001  -0.00005  -0.00006   1.82091
   R10        1.82083   0.00000   0.00002  -0.00000   0.00002   1.82085
   R11        1.82132   0.00001   0.00001   0.00002   0.00003   1.82134
   R12        1.80828   0.00002  -0.00003   0.00004   0.00001   1.80830
   R13        1.80852   0.00002  -0.00002   0.00003   0.00001   1.80853
   R14        1.80863   0.00002   0.00005   0.00001   0.00006   1.80869
    A1        1.88467  -0.00013  -0.00192  -0.00008  -0.00200   1.88267
    A2        1.88676   0.00042   0.00171   0.00136   0.00307   1.88982
    A3        1.91331  -0.00016  -0.00155  -0.00023  -0.00178   1.91152
    A4        1.92495  -0.00011   0.00051  -0.00058  -0.00008   1.92487
    A5        1.92188   0.00003  -0.00013  -0.00004  -0.00018   1.92169
    A6        1.93132  -0.00004   0.00132  -0.00039   0.00094   1.93226
    A7        0.28741  -0.00082  -0.00000   0.00000   0.00000   0.28741
    A8        1.85382  -0.00009  -0.00144  -0.00004  -0.00148   1.85234
    A9        1.91767   0.00002   0.00046  -0.00000   0.00045   1.91812
   A10        2.00687   0.00006   0.00133  -0.00012   0.00121   2.00808
   A11        1.98649   0.00009   0.00044   0.00037   0.00080   1.98730
   A12        1.86588  -0.00001  -0.00154   0.00036  -0.00117   1.86471
   A13        1.83655  -0.00007   0.00079  -0.00053   0.00026   1.83681
   A14        2.61904   0.00144   0.00046  -0.00041   0.00005   2.61909
   A15        2.02704  -0.00006   0.00142  -0.00080   0.00062   2.02766
   A16        2.02579  -0.00001  -0.00061   0.00014  -0.00047   2.02532
   A17        2.01600   0.00002   0.00000   0.00011   0.00011   2.01611
   A18        3.26470   0.00006   0.00366   0.00303   0.00669   3.27139
   A19        3.31272  -0.00016  -0.00428  -0.00955  -0.01383   3.29889
   A20        3.04535   0.00009  -0.00774   0.00795   0.00021   3.04556
   A21        3.00050  -0.00003  -0.00035  -0.00202  -0.00237   2.99813
   A22        3.22836   0.00005   0.00033   0.00291   0.00324   3.23160
   A23        3.10823  -0.00004  -0.01181   0.00073  -0.01108   3.09715
    D1       -2.56504  -0.00001  -0.09859   0.00008  -0.09852  -2.66356
    D2        1.63558  -0.00004  -0.09908   0.00006  -0.09901   1.53657
    D3       -0.47109  -0.00014  -0.10081  -0.00016  -0.10096  -0.57205
    D4       -0.52778   0.00004  -0.00298   0.00129  -0.00168  -0.52946
    D5       -2.68373  -0.00002  -0.00288   0.00088  -0.00199  -2.68572
    D6        1.53193   0.00001  -0.00510   0.00165  -0.00346   1.52847
    D7        2.89583  -0.00000   0.00004  -0.00019  -0.00015   2.89569
    D8       -1.27510   0.00001  -0.00012  -0.00000  -0.00012  -1.27522
    D9        0.74488  -0.00002   0.00011  -0.00022  -0.00011   0.74476
   D10        0.60900  -0.00009  -0.00411  -0.00088  -0.00499   0.60402
   D11       -1.46720  -0.00005  -0.00288  -0.00106  -0.00394  -1.47114
   D12        2.77886  -0.00005  -0.00174  -0.00136  -0.00310   2.77576
   D13        1.54878   0.00003   0.00104  -0.00020   0.00084   1.54963
   D14       -2.68149  -0.00005  -0.00103  -0.00007  -0.00110  -2.68259
   D15       -0.56365   0.00001  -0.00088   0.00026  -0.00063  -0.56428
         Item               Value     Threshold  Converged?
 Maximum Force            0.001013     0.000450     NO 
 RMS     Force            0.000189     0.000300     YES
 Maximum Displacement     0.244847     0.001800     NO 
 RMS     Displacement     0.095731     0.001200     NO 
 Predicted change in Energy=-1.437186D-05
 GradGradGradGradGradGradGradGradGradGradGradGradGradGradGradGradGradGrad

                          Input orientation:                          
 ---------------------------------------------------------------------
 Center     Atomic      Atomic             Coordinates (Angstroms)
 Number     Number       Type             X           Y           Z
 ---------------------------------------------------------------------
      1         40           0        1.385591   -0.009462   -0.054487
      2         14           0       -2.087587    0.324045    0.019154
      3          8           0       -0.577955   -0.281641   -0.067515
      4          8           0       -1.990650    1.664338    0.986121
      5          8           0       -3.131258   -0.837792    0.583875
      6          8           0       -2.727874    0.819509   -1.424239
      7          1           0       -2.771322   -1.448657    1.236345
      8          1           0       -3.199594    0.143130   -1.923166
      9          1           0       -2.750996    2.256033    0.969966
     10          8           0        2.190274   -1.437472   -1.085670
     11          1           0        2.723649   -2.045742   -1.596741
     12          8           0        1.996131   -0.080642    1.780741
     13          1           0        2.409211    0.001223    2.640146
     14          8           0        1.804801    1.697992   -0.846976
     15          1           0        1.947658    2.585497   -1.175612
 ---------------------------------------------------------------------
                    Distance matrix (angstroms):
                    1          2          3          4          5
     1  Zr   0.000000
     2  Si   3.489931   0.000000
     3  O    1.982364   1.628913   0.000000
     4  O    3.909409   1.655539   2.625393   0.000000
     5  O    4.636330   1.660730   2.693133   2.779108   0.000000
     6  O    4.414070   1.654943   2.770448   2.658397   2.634746
     7  H    4.584480   2.256440   2.805858   3.219131   0.963550
     8  H    4.953703   2.245416   3.239886   3.498510   2.692977
     9  H    4.826316   2.253160   3.498323   0.963582   3.140926
    10  O    1.936509   4.756436   3.167914   5.603006   5.609429
    11  H    2.883641   5.601340   4.043659   6.531500   6.363502
    12  O    1.935430   4.465839   3.175275   4.423889   5.319387
    13  H    2.882527   5.214884   4.041610   4.986033   5.969003
    14  O    1.928516   4.217653   3.194376   4.215071   5.730812
    15  H    2.882127   4.777535   3.978327   4.586054   6.372605
                    6          7          8          9         10
     6  O    0.000000
     7  H    3.496452   0.000000
[...]
 ! A17   A(2,6,8)              115.5252         -DE/DX =    0.0                 !
 ! A18   L(1,10,11,8,-1)       190.82           -DE/DX =    0.0                 !
 ! A19   L(1,12,13,7,-1)       185.6567         -DE/DX =    0.0                 !
 ! A20   L(1,14,15,4,-1)       177.1268         -DE/DX =    0.0                 !
 ! A21   L(1,10,11,8,-2)       173.7875         -DE/DX =    0.0                 !
 ! A22   L(1,12,13,7,-2)       190.8222         -DE/DX =    0.0                 !
 ! A23   L(1,14,15,4,-2)       179.3777         -DE/DX =    0.0                 !
 ! D1    D(10,1,3,2)          -160.5636         -DE/DX =    0.0                 !
 ! D2    D(12,1,3,2)            80.3403         -DE/DX =    0.0                 !
 ! D3    D(14,1,3,2)           -40.5076         -DE/DX =    0.0                 !
 ! D4    D(4,2,3,1)            -24.1461         -DE/DX =    0.0                 !
 ! D5    D(5,2,3,1)           -147.6878         -DE/DX =    0.0                 !
 ! D6    D(6,2,3,1)             93.7354         -DE/DX =    0.0                 !
 ! D7    D(3,2,4,9)            164.5113         -DE/DX =    0.0                 !
 ! D8    D(5,2,4,9)            -74.5736         -DE/DX =    0.0                 !
 ! D9    D(6,2,4,9)             41.2236         -DE/DX =    0.0                 !
 ! D10   D(3,2,5,7)             32.3536         -DE/DX =    0.0                 !
 ! D11   D(4,2,5,7)            -86.5262         -DE/DX =    0.0                 !
 ! D12   D(6,2,5,7)            156.8233         -DE/DX =    0.0                 !
 ! D13   D(3,2,6,8)             88.7184         -DE/DX =    0.0                 !
 ! D14   D(4,2,6,8)           -153.7401         -DE/DX =    0.0                 !
 ! D15   D(5,2,6,8)            -32.3226         -DE/DX =    0.0                 !
 --------------------------------------------------------------------------------
 GradGradGradGradGradGradGradGradGradGradGradGradGradGradGradGradGradGrad

                          Input orientation:                          
 ---------------------------------------------------------------------
 Center     Atomic      Atomic             Coordinates (Angstroms)
 Number     Number       Type             X           Y           Z
 ---------------------------------------------------------------------
      1         40           0        1.382254   -0.007605   -0.078815
      2         14           0       -2.087164    0.326844    0.017596
      3          8           0       -0.578987   -0.268376   -0.138314
      4          8           0       -1.963814    1.637742    1.020164
      5          8           0       -3.103742   -0.859155    0.582386
      6          8           0       -2.779094    0.863098   -1.386553
      7          1           0       -2.709041   -1.506646    1.176767
      8          1           0       -3.264242    0.199861   -1.890186
      9          1           0       -2.718809    2.236372    1.031062
     10          8           0        2.195207   -1.452279   -1.081717
     11          1           0        2.766561   -2.076757   -1.528367
     12          8           0        1.961007   -0.074456    1.766607
     13          1           0        2.283978    0.075177    2.655072
     14          8           0        1.826822    1.696033   -0.867979
     15          1           0        2.009143    2.560508   -1.235782
 ---------------------------------------------------------------------
                    Distance matrix (angstroms):
                    1          2          3          4          5
     1  Zr   0.000000
     2  Si   3.486834   0.000000
     3  O    1.979396   1.628863   0.000000
     4  O    3.887299   1.654935   2.625472   0.000000
     5  O    4.613728   1.661028   2.691248   2.779494   0.000000
     6  O    4.448046   1.654681   2.771065   2.656509   2.635958
     7  H    4.534568   2.256567   2.792827   3.235285   0.963495
     8  H    4.991396   2.245277   3.240200   3.496963   2.694603
     9  H    4.804787   2.252195   3.495717   0.963584   3.151471
    10  O    1.937469   4.765761   3.160346   5.591386   5.585687
    11  H    2.880780   5.632579   4.049096   6.532148   6.355965
    12  O    1.935202   4.428066   3.180865   4.346610   5.260211
    13  H    2.879948   5.111408   4.014674   4.812304   5.847780
    14  O    1.929457   4.240071   3.190490   4.235256   5.739600
    15  H    2.885614   4.831143   3.988162   4.661027   6.414158
                    6          7          8          9         10
     6  O    0.000000
     7  H    3.491591   0.000000
     8  H    0.963793   3.553395   0.000000
     9  H    2.781075   3.745866   3.602577   0.000000
    10  O    5.495231   5.399571   5.760970   6.497502   0.000000
    11  H    6.278307   6.133922   6.456353   7.432566   0.957034
    12  O    5.769747   4.920207   6.383621   5.270828   3.172728
    13  H    6.526120   5.442223   7.173399   5.686479   4.037895
    14  O    4.709263   5.917110   5.403921   4.955913   3.176989
    15  H    5.082435   6.680075   5.814593   5.253301   4.020051
                   11         12         13         14         15
    11  H    0.000000
    12  O    3.938906   0.000000
    13  H    4.729151   0.957115   0.000000
    14  O    3.943750   3.177055   3.904876   0.000000
    15  H    4.707814   3.994958   4.625057   0.956994   0.000000
 Stoichiometry    H6O7SiZr
 Framework group  C1[X(H6O7SiZr)]
 Deg. of freedom    39
 Full point group                 C1      NOp   1
 Largest Abelian subgroup         C1      NOp   1
 Largest concise Abelian subgroup C1      NOp   1
                         Standard orientation:                         
 ---------------------------------------------------------------------
 Center     Atomic      Atomic             Coordinates (Angstroms)
 Number     Number       Type             X           Y           Z
 ---------------------------------------------------------------------
      1         40           0        1.350553   -0.022295   -0.018252
      2         14           0       -2.136096   -0.053173    0.000142
      3          8           0       -0.570778   -0.486513   -0.123112
      4          8           0       -2.173114    1.258175    1.009006
      5          8           0       -3.035251   -1.341959    0.538254
      6          8           0       -2.848845    0.415081   -1.417849
      7          1           0       -2.588290   -1.947701    1.139607
      8          1           0       -3.250507   -0.292631   -1.934288
      9          1           0       -2.986698    1.774464    1.004434
     10          8           0        2.332508   -1.368722   -1.006527
     11          1           0        2.975944   -1.927651   -1.441845
     12          8           0        1.891769   -0.037877    1.839664
     13          1           0        2.177373    0.140077    2.735673
     14          8           0        1.631791    1.722609   -0.792214
     15          1           0        1.730755    2.603326   -1.153296
 ---------------------------------------------------------------------
 Rotational constants (GHZ):           1.6477351           0.4909919           0.4885452

 **********************************************************************

            Population analysis using the SCF Density.

 **********************************************************************

 Orbital symmetries:
       Occupied  (A) (A) (A) (A) (A) (A) (A) (A) (A) (A) (A) (A)
                 (A) (A) (A) (A) (A) (A) (A) (A) (A) (A) (A) (A)
                 (A) (A) (A) (A) (A) (A) (A) (A) (A) (A) (A) (A)
                 (A) (A) (A) (A) (A) (A) (A) (A)
       Virtual   (A) (A) (A) (A) (A) (A) (A) (A) (A) (A) (A) (A)
                 (A) (A) (A) (A) (A) (A) (A) (A) (A) (A) (A) (A)
                 (A) (A) (A) (A) (A) (A) (A) (A) (A) (A) (A) (A)
                 (A) (A) (A) (A) (A) (A) (A) (A) (A) (A) (A) (A)
                 (A) (A) (A) (A) (A) (A) (A) (A) (A) (A) (A) (A)
                 (A) (A) (A) (A) (A) (A) (A) (A) (A) (A) (A) (A)
                 (A) (A) (A) (A) (A) (A) (A) (A) (A) (A) (A) (A)
                 (A) (A) (A) (A) (A) (A) (A) (A) (A) (A) (A) (A)
                 (A) (A) (A) (A) (A) (A) (A) (A) (A) (A) (A) (A)
                 (A) (A) (A) (A) (A) (A) (A) (A) (A) (A) (A) (A)
                 (A) (A) (A) (A) (A) (A) (A) (A) (A) (A) (A) (A)
                 (A) (A) (A) (A) (A) (A) (A) (A) (A) (A) (A) (A)
                 (A) (A) (A) (A) (A) (A) (A) (A) (A) (A) (A) (A)
                 (A) (A) (A) (A) (A) (A) (A) (A) (A) (A) (A) (A)
                 (A) (A) (A) (A) (A) (A) (A) (A) (A) (A) (A) (A)
                 (A) (A) (A) (A) (A) (A) (A) (A) (A) (A) (A) (A)
                 (A) (A) (A) (A) (A) (A) (A) (A) (A) (A) (A) (A)
                 (A) (A) (A) (A) (A) (A) (A) (A) (A) (A) (A) (A)
                 (A) (A) (A) (A) (A) (A)
 The electronic state is 1-A.
 Alpha  occ. eigenvalues --  -66.19947 -19.15223 -19.15206 -19.15043 -19.14376
 Alpha  occ. eigenvalues --  -19.14240 -19.14116 -19.13200  -5.34055  -3.70019
 Alpha  occ. eigenvalues --   -3.70011  -3.69977  -2.11154  -1.27483  -1.27361
 Alpha  occ. eigenvalues --   -1.27017  -1.02842  -0.99683  -0.99467  -0.96578
 Alpha  occ. eigenvalues --   -0.95382  -0.95279  -0.94106  -0.57489  -0.52297
 Alpha  occ. eigenvalues --   -0.51675  -0.50323  -0.49573  -0.49564  -0.45465
 Alpha  occ. eigenvalues --   -0.39570  -0.37745  -0.37323  -0.35993  -0.35589
 Alpha  occ. eigenvalues --   -0.34736  -0.34255  -0.33981  -0.32917  -0.32646
 Alpha  occ. eigenvalues --   -0.32086  -0.31256  -0.31181  -0.30748
 Alpha virt. eigenvalues --   -0.02890  -0.01265  -0.00617  -0.00517   0.00304
 Alpha virt. eigenvalues --    0.00437   0.00888   0.01156   0.01817   0.02489
 Alpha virt. eigenvalues --    0.02576   0.02943   0.03145   0.03322   0.03408
 Alpha virt. eigenvalues --    0.04238   0.04575   0.04643   0.05481   0.05702
 Alpha virt. eigenvalues --    0.06811   0.09128   0.09698   0.09744   0.10035
 Alpha virt. eigenvalues --    0.10313   0.11551   0.12326   0.13137   0.13948
 Alpha virt. eigenvalues --    0.14463   0.15810   0.16310   0.16474   0.17629
 Alpha virt. eigenvalues --    0.18087   0.18293   0.18967   0.19430   0.19835
 Alpha virt. eigenvalues --    0.20088   0.20759   0.21288   0.22245   0.22367
 Alpha virt. eigenvalues --    0.24106   0.25217   0.25407   0.25970   0.26421
 Alpha virt. eigenvalues --    0.27209   0.27306   0.28225   0.28348   0.28758
 Alpha virt. eigenvalues --    0.29047   0.29597   0.29687   0.30012   0.31076
 Alpha virt. eigenvalues --    0.31703   0.32813   0.33071   0.34908   0.35602
 Alpha virt. eigenvalues --    0.35670   0.36022   0.37700   0.39420   0.40368
 Alpha virt. eigenvalues --    0.41450   0.43676   0.44793   0.46200   0.47055
 Alpha virt. eigenvalues --    0.48244   0.49263   0.49663   0.53030   0.54339
 Alpha virt. eigenvalues --    0.54963   0.56773   0.57490   0.60238   0.60918
 Alpha virt. eigenvalues --    0.61144   0.61759   0.62293   0.65278   0.66070
 Alpha virt. eigenvalues --    0.67382   0.68507   0.70704   0.72607   0.72832
 Alpha virt. eigenvalues --    0.74905   0.75976   0.77678   0.78646   0.81770
 Alpha virt. eigenvalues --    0.84058   0.86296   0.96242   0.97837   0.98361
 Alpha virt. eigenvalues --    1.01958   1.02593   1.04136   1.06713   1.07278
 Alpha virt. eigenvalues --    1.07585   1.18576   1.19554   1.20574   1.21173
 Alpha virt. eigenvalues --    1.21398   1.22844   1.23423   1.23768   1.25718
 Alpha virt. eigenvalues --    1.26367   1.27389   1.28156   1.28860   1.29038
 Alpha virt. eigenvalues --    1.29734   1.30710   1.31544   1.31969   1.33130
 Alpha virt. eigenvalues --    1.34707   1.37052   1.41802   1.43102   1.46005
 Alpha virt. eigenvalues --    1.47816   1.51051   1.55819   1.59645   1.60990
 Alpha virt. eigenvalues --    1.61530   1.63222   1.63492   1.65530   1.67743
 Alpha virt. eigenvalues --    1.70338   1.71086   1.72218   1.72756   1.73070
 Alpha virt. eigenvalues --    1.74011   1.74844   1.76149   1.77356   1.78465
 Alpha virt. eigenvalues --    1.79279   1.80054   1.82812   1.83416   1.84595
 Alpha virt. eigenvalues --    1.86266   1.86576   1.91035   1.91548   1.91757
 Alpha virt. eigenvalues --    1.92742   1.93540   1.94880   1.96910   1.97663
 Alpha virt. eigenvalues --    1.98285   2.00193   2.01821   2.03038   2.07990
 Alpha virt. eigenvalues --    2.08205   2.09310   2.10822   2.12699   2.17724
 Alpha virt. eigenvalues --    2.19977   2.20653   2.24626   2.26331   2.32392
 Alpha virt. eigenvalues --    2.39825   2.42002   2.42780   2.43615   2.45204
 Alpha virt. eigenvalues --    2.50405   2.57715   2.60686   2.62351   2.63351
 Alpha virt. eigenvalues --    2.65046   2.68095   2.68568   2.69208   2.72953
 Alpha virt. eigenvalues --    2.79301   2.80452   2.82472   2.83844   2.87231
 Alpha virt. eigenvalues --    2.89989   2.91501   2.92791   2.93409   2.94629
 Alpha virt. eigenvalues --    2.97441   3.13438   3.46724   3.48578   3.51624
 Alpha virt. eigenvalues --    3.57215   3.61602   3.71833   4.13148   4.14311
 Alpha virt. eigenvalues --    4.19206  30.83910
          Condensed to atoms (all electrons):
               1          2          3          4          5          6
     1  Zr  10.493906   0.124688  -0.019986   0.003248  -0.087914  -0.032904
     2  Si   0.124688  12.975421  -0.686830  -0.104326  -0.166188   0.009011
     3  O   -0.019986  -0.686830   8.901899   0.105591   0.297573   0.092438
     4  O    0.003248  -0.104326   0.105591   8.594918  -0.024895   0.040519
     5  O   -0.087914  -0.166188   0.297573  -0.024895   8.564886   0.006731
     6  O   -0.032904   0.009011   0.092438   0.040519   0.006731   8.532438
     7  H   -0.004614   0.028580   0.000444  -0.006111   0.239807   0.006581
     8  H    0.002249   0.057647  -0.021622   0.006136  -0.004682   0.234489
     9  H   -0.004760   0.035380   0.009916   0.225455  -0.004922  -0.004233
    10  O    0.021951  -0.007025  -0.020291   0.000437   0.001326   0.000317
    11  H   -0.086802   0.000286  -0.001097   0.000001   0.000003  -0.000001
    12  O    0.033695  -0.013948  -0.026791   0.001347   0.001112   0.000329
    13  H   -0.086918   0.000781  -0.000539   0.000042   0.000002   0.000001
    14  O    0.015099  -0.005117  -0.028752   0.001177   0.001038  -0.001045
    15  H   -0.089884   0.000834  -0.000321   0.000059   0.000003   0.000044
               7          8          9         10         11         12
     1  Zr  -0.004614   0.002249  -0.004760   0.021951  -0.086802   0.033695
     2  Si   0.028580   0.057647   0.035380  -0.007025   0.000286  -0.013948
     3  O    0.000444  -0.021622   0.009916  -0.020291  -0.001097  -0.026791
     4  O   -0.006111   0.006136   0.225455   0.000437   0.000001   0.001347
     5  O    0.239807  -0.004682  -0.004922   0.001326   0.000003   0.001112
     6  O    0.006581   0.234489  -0.004233   0.000317  -0.000001   0.000329
     7  H    0.369807   0.000056   0.000076   0.000004  -0.000000  -0.000018
     8  H    0.000056   0.358541   0.000052  -0.000017  -0.000000  -0.000007
     9  H    0.000076   0.000052   0.362241  -0.000003  -0.000000  -0.000031
    10  O    0.000004  -0.000017  -0.000003   8.609356   0.328671  -0.031826
    11  H   -0.000000  -0.000000  -0.000000   0.328671   0.381430  -0.000986
    12  O   -0.000018  -0.000007  -0.000031  -0.031826  -0.000986   8.596173
    13  H   -0.000000  -0.000000  -0.000000  -0.000391  -0.000006   0.328289
    14  O    0.000002   0.000044   0.000006  -0.036566  -0.001278  -0.036753
    15  H   -0.000000  -0.000000  -0.000000  -0.000716  -0.000007  -0.001021
              13         14         15
     1  Zr  -0.086918   0.015099  -0.089884
     2  Si   0.000781  -0.005117   0.000834
     3  O   -0.000539  -0.028752  -0.000321
     4  O    0.000042   0.001177   0.000059
     5  O    0.000002   0.001038   0.000003
     6  O    0.000001  -0.001045   0.000044
     7  H   -0.000000   0.000002  -0.000000
     8  H   -0.000000   0.000044  -0.000000
     9  H   -0.000000   0.000006  -0.000000
    10  O   -0.000391  -0.036566  -0.000716
    11  H   -0.000006  -0.001278  -0.000007
    12  O    0.328289  -0.036753  -0.001021
    13  H    0.380650  -0.001689  -0.000012
    14  O   -0.001689   8.617587   0.331017
    15  H   -0.000012   0.331017   0.379272
 Mulliken charges:
               1
     1  Zr   1.718947
     2  Si   1.750807
     3  O   -0.601630
     4  O   -0.843598
     5  O   -0.823882
     6  O   -0.884715
     7  H    0.365386
     8  H    0.367113
     9  H    0.380823
    10  O   -0.865229
    11  H    0.379787
    12  O   -0.849561
    13  H    0.379790
    14  O   -0.854771
    15  H    0.380732
 Sum of Mulliken charges =  -0.00000
 Mulliken charges with hydrogens summed into heavy atoms:
               1
     1  Zr   1.718947
     2  Si   1.750807
     3  O   -0.601630
     4  O   -0.462775
     5  O   -0.458496
     6  O   -0.517602
    10  O   -0.485441
    12  O   -0.469771
    14  O   -0.474039
 Electronic spatial extent (au):  <R**2>=           2193.4079
 Charge=              0.0000 electrons
 Dipole moment (field-independent basis, Debye):
    X=              1.5966    Y=             -0.2344    Z=              0.2697  Tot=              1.6361
 Quadrupole moment (field-independent basis, Debye-Ang):
   XX=            -69.4566   YY=            -67.5773   ZZ=            -68.1528
   XY=             -0.4379   XZ=             -0.1159   YZ=              0.7007
 Traceless Quadrupole moment (field-independent basis, Debye-Ang):
   XX=             -1.0610   YY=              0.8183   ZZ=              0.2427
   XY=             -0.4379   XZ=             -0.1159   YZ=              0.7007
 Octapole moment (field-independent basis, Debye-Ang**2):
  XXX=             55.4746  YYY=             10.5094  ZZZ=             11.1798  XYY=             19.7058
  XXY=              4.2416  XXZ=             -6.9181  XZZ=             21.2397  YZZ=             -8.1821
  YYZ=             -4.6448  XYZ=             -2.2172
 Hexadecapole moment (field-independent basis, Debye-Ang**3):
 XXXX=          -1859.3812 YYYY=           -338.8771 ZZZZ=           -340.1814 XXXY=           -104.5772
 XXXZ=              0.4800 YYYX=              3.2660 YYYZ=            -26.9855 ZZZX=             58.8871
 ZZZY=             12.9993 XXYY=           -327.9649 XXZZ=           -309.0062 YYZZ=           -117.6269
 XXYZ=             62.6824 YYXZ=            -57.8400 ZZXY=             24.8625
 N-N= 6.359051019145D+02 E-N=-3.309367929884D+03  KE= 8.306838184301D+02
 1\1\GINC-GRA596\FOpt\RB3LYP\Gen\H6O7Si1Zr1\SARASHS\16-Jul-2020\0\\#n B
 3LYP/Gen Pseudo=cards EmpiricalDispersion=GD3 Opt=modredundant\\Title\
 \0,1\Zr,1.382253994,-0.007605459,-0.078815181\Si,-2.0871640747,0.32684
 4147,0.0175964036\O,-0.5789869211,-0.2683763848,-0.1383143595\O,-1.963
 8136201,1.6377424668,1.0201636448\O,-3.1037421192,-0.8591552503,0.5823
 862699\O,-2.7790936302,0.8630977621,-1.3865532758\H,-2.7090412092,-1.5
 06646401,1.1767669033\H,-3.2642421052,0.1998610008,-1.8901856776\H,-2.
 7188087141,2.2363717663,1.0310615663\O,2.1952074349,-1.4522788999,-1.0
 817174458\H,2.7665611994,-2.0767570658,-1.5283670628\O,1.9610072231,-0
 .0744557145,1.7666073078\H,2.2839778785,0.0751774393,2.655072184\O,1.8
 268215054,1.696032945,-0.8679790414\H,2.0091431584,2.5605076479,-1.235
 7822359\\Version=ES64L-G16RevB.01\State=1-A\HF=-867.1277169\RMSD=3.061
 e-09\RMSF=1.580e-04\Dipole=0.6173228,-0.1572018,0.0925352\Quadrupole=-
 0.8422094,0.6638806,0.1783288,-0.1610225,-0.0074129,0.5295577\PG=C01 [
 X(H6O7Si1Zr1)]\\@


 KNOWLEDGE IS OF TWO KINDS:  WE KNOW A SUBJECT OURSELVES OR WE KNOW 
 WHERE WE CAN FIND INFORMATION UPON IT.

                                    -- SAMUEL JOHNSON
 Job cpu time:       0 days  5 hours  8 minutes 36.5 seconds.
 Elapsed time:       0 days  0 hours 22 minutes 15.0 seconds.
 File lengths (MBytes):  RWF=     48 Int=      0 D2E=      0 Chk=      6 Scr=      1
 Normal termination of Gaussian 16 at Thu Jul 16 15:33:54 2020.
