 Entering Gaussian System, Link 0=g16
 Initial command:
 /opt/software/gaussian/g16.b01/l1.exe "/localscratch/sarashs.35132336.0/Gau-11593.inp" -scrdir="/localscratch/sarashs.35132336.0/"
 Entering Link 1 = /opt/software/gaussian/g16.b01/l1.exe PID=     11596.
  
 Copyright (c) 1988-2017, Gaussian, Inc.  All Rights Reserved.
  
 This is part of the Gaussian(R) 16 program.  It is based on
 the Gaussian(R) 09 system (copyright 2009, Gaussian, Inc.),
 the Gaussian(R) 03 system (copyright 2003, Gaussian, Inc.),
 the Gaussian(R) 98 system (copyright 1998, Gaussian, Inc.),
 the Gaussian(R) 94 system (copyright 1995, Gaussian, Inc.),
 the Gaussian 92(TM) system (copyright 1992, Gaussian, Inc.),
 the Gaussian 90(TM) system (copyright 1990, Gaussian, Inc.),
 the Gaussian 88(TM) system (copyright 1988, Gaussian, Inc.),
 the Gaussian 86(TM) system (copyright 1986, Carnegie Mellon
 University), and the Gaussian 82(TM) system (copyright 1983,
 Carnegie Mellon University). Gaussian is a federally registered
 trademark of Gaussian, Inc.
  
 This software contains proprietary and confidential information,
 including trade secrets, belonging to Gaussian, Inc.
  
 This software is provided under written license and may be
 used, copied, transmitted, or stored only in accord with that
 written license.
  
 The following legend is applicable only to US Government
 contracts under FAR:
  
                    RESTRICTED RIGHTS LEGEND
  
 Use, reproduction and disclosure by the US Government is
 subject to restrictions as set forth in subparagraphs (a)
 and (c) of the Commercial Computer Software - Restricted
 Rights clause in FAR 52.227-19.
  
 Gaussian, Inc.
 340 Quinnipiac St., Bldg. 40, Wallingford CT 06492
  
  
 ---------------------------------------------------------------
 Warning -- This program may not be used in any manner that
 competes with the business of Gaussian, Inc. or will provide
 assistance to any competitor of Gaussian, Inc.  The licensee
 of this program is prohibited from giving any competitor of
 Gaussian, Inc. access to this program.  By using this program,
 the user acknowledges that Gaussian, Inc. is engaged in the
 business of creating and licensing software in the field of
 computational chemistry and represents and warrants to the
 licensee that it is not a competitor of Gaussian, Inc. and that
 it will not use this program in any manner prohibited above.
 ---------------------------------------------------------------
  

 Cite this work as:
 Gaussian 16, Revision B.01,
 M. J. Frisch, G. W. Trucks, H. B. Schlegel, G. E. Scuseria, 
 M. A. Robb, J. R. Cheeseman, G. Scalmani, V. Barone, 
 G. A. Petersson, H. Nakatsuji, X. Li, M. Caricato, A. V. Marenich, 
 J. Bloino, B. G. Janesko, R. Gomperts, B. Mennucci, H. P. Hratchian, 
 J. V. Ortiz, A. F. Izmaylov, J. L. Sonnenberg, D. Williams-Young, 
 F. Ding, F. Lipparini, F. Egidi, J. Goings, B. Peng, A. Petrone, 
 T. Henderson, D. Ranasinghe, V. G. Zakrzewski, J. Gao, N. Rega, 
 G. Zheng, W. Liang, M. Hada, M. Ehara, K. Toyota, R. Fukuda, 
 J. Hasegawa, M. Ishida, T. Nakajima, Y. Honda, O. Kitao, H. Nakai, 
 T. Vreven, K. Throssell, J. A. Montgomery, Jr., J. E. Peralta, 
 F. Ogliaro, M. J. Bearpark, J. J. Heyd, E. N. Brothers, K. N. Kudin, 
 V. N. Staroverov, T. A. Keith, R. Kobayashi, J. Normand, 
 K. Raghavachari, A. P. Rendell, J. C. Burant, S. S. Iyengar, 
 J. Tomasi, M. Cossi, J. M. Millam, M. Klene, C. Adamo, R. Cammi, 
 J. W. Ochterski, R. L. Martin, K. Morokuma, O. Farkas, 
 J. B. Foresman, and D. J. Fox, Gaussian, Inc., Wallingford CT, 2016.
 
 ******************************************
 Gaussian 16:  ES64L-G16RevB.01 20-Dec-2017
                15-Jul-2020 
 ******************************************
 %NProcShared=16
 Will use up to   16 processors via shared memory.
 ------------------------------------------------------------------
 #n B3LYP/Gen Pseudo=cards EmpiricalDispersion=GD3 Opt=modredundant
 ------------------------------------------------------------------
 1/18=120,19=15,26=3,38=1/1,3;
 2/9=110,12=2,17=6,18=5,40=1/2;
 3/5=7,11=2,16=1,17=8,25=1,30=1,71=1,74=-5,124=31/1,2,3;
 4//1;
 5/5=2,38=5/2;
 6/7=2,8=2,9=2,10=2,28=1/1;
 7//1,2,3,16;
 1/18=20,19=15,26=3/3(2);
 2/9=110/2;
 99//99;
 2/9=110/2;
 3/5=7,6=1,11=2,16=1,17=8,25=1,30=1,71=1,74=-5,82=7,124=31/1,2,3;
 4/5=5,16=3,69=1/1;
 5/5=2,38=5/2;
 7//1,2,3,16;
 1/18=20,19=15,26=3/3(-5);
 2/9=110/2;
 6/7=2,8=2,9=2,10=2,19=2,28=1/1;
 99/9=1/99;
 -----
 Title
 -----
 Symbolic Z-matrix:
 Charge =  0 Multiplicity = 1
 Zr                    1.37839  -0.01367  -0.01029 
 Si                   -2.17258   0.02857   0.01135 
 O                    -0.57498  -0.28442   0.01654 
 O                    -2.36045   1.50563   0.72963 
 O                    -2.98973  -1.19825   0.77868 
 O                    -2.85645   0.12893  -1.49197 
 H                    -2.54136  -1.60181   1.52999 
 H                    -3.1766   -0.70288  -1.85871 
 H                    -3.22076   1.92434   0.61515 
 O                     2.15239  -1.31312  -1.2196 
 H                     2.65751  -1.85105  -1.82887 
 O                     2.04402  -0.29207   1.78758 
 H                     2.51011  -0.3161    2.62313 
 O                     1.78195   1.7752   -0.6111 
 H                     1.91399   2.68442  -0.87911 
 
 The following ModRedundant input section has been read:
 A       1       2       3 F                                                   
 

 GradGradGradGradGradGradGradGradGradGradGradGradGradGradGradGradGradGrad
 Berny optimization.
 Initialization pass.
                           ----------------------------
                           !    Initial Parameters    !
                           ! (Angstroms and Degrees)  !
 --------------------------                            --------------------------
 ! Name  Definition              Value          Derivative Info.                !
 --------------------------------------------------------------------------------
 ! R1    R(1,3)                  1.9722         estimate D2E/DX2                !
 ! R2    R(1,10)                 1.9365         estimate D2E/DX2                !
 ! R3    R(1,12)                 1.9372         estimate D2E/DX2                !
 ! R4    R(1,14)                 1.9297         estimate D2E/DX2                !
 ! R5    R(2,3)                  1.628          estimate D2E/DX2                !
 ! R6    R(2,4)                  1.6532         estimate D2E/DX2                !
 ! R7    R(2,5)                  1.6618         estimate D2E/DX2                !
 ! R8    R(2,6)                  1.6546         estimate D2E/DX2                !
 ! R9    R(4,9)                  0.9636         estimate D2E/DX2                !
 ! R10   R(5,7)                  0.9635         estimate D2E/DX2                !
 ! R11   R(6,8)                  0.9638         estimate D2E/DX2                !
 ! R12   R(10,11)                0.9569         estimate D2E/DX2                !
 ! R13   R(12,13)                0.9571         estimate D2E/DX2                !
 ! R14   R(14,15)                0.9571         estimate D2E/DX2                !
 ! A1    A(3,1,10)             108.1944         estimate D2E/DX2                !
 ! A2    A(3,1,12)             107.9362         estimate D2E/DX2                !
 ! A3    A(3,1,14)             109.793          estimate D2E/DX2                !
 ! A4    A(10,1,12)            110.2299         estimate D2E/DX2                !
 ! A5    A(10,1,14)            110.1226         estimate D2E/DX2                !
 ! A6    A(12,1,14)            110.5061         estimate D2E/DX2                !
 ! A7    A(1,2,3)               10.4166         Frozen                          !
 ! A8    A(3,2,4)              106.3745         estimate D2E/DX2                !
 ! A9    A(3,2,5)              109.8246         estimate D2E/DX2                !
 ! A10   A(3,2,6)              114.8446         estimate D2E/DX2                !
 ! A11   A(4,2,5)              113.7721         estimate D2E/DX2                !
 ! A12   A(4,2,6)              107.0735         estimate D2E/DX2                !
 ! A13   A(5,2,6)              105.1334         estimate D2E/DX2                !
 ! A14   A(1,3,2)              161.0002         estimate D2E/DX2                !
 ! A15   A(2,4,9)              115.9811         estimate D2E/DX2                !
 ! A16   A(2,5,7)              116.1315         estimate D2E/DX2                !
 ! A17   A(2,6,8)              115.51           estimate D2E/DX2                !
 ! A18   L(1,10,11,8,-1)       187.2493         estimate D2E/DX2                !
 ! A19   L(1,12,13,7,-1)       190.6069         estimate D2E/DX2                !
 ! A20   L(1,14,15,4,-1)       175.4262         estimate D2E/DX2                !
 ! A21   L(1,10,11,8,-2)       172.8057         estimate D2E/DX2                !
 ! A22   L(1,12,13,7,-2)       183.7586         estimate D2E/DX2                !
 ! A23   L(1,14,15,4,-2)       179.1357         estimate D2E/DX2                !
 ! D1    D(10,1,3,2)          -136.4107         estimate D2E/DX2                !
 ! D2    D(12,1,3,2)           104.3166         estimate D2E/DX2                !
 ! D3    D(14,1,3,2)           -16.2015         estimate D2E/DX2                !
 ! D4    D(4,2,3,1)            -29.9135         estimate D2E/DX2                !
 ! D5    D(5,2,3,1)           -153.4548         estimate D2E/DX2                !
 ! D6    D(6,2,3,1)             88.3331         estimate D2E/DX2                !
 ! D7    D(3,2,4,9)            165.916          estimate D2E/DX2                !
 ! D8    D(5,2,4,9)            -73.0413         estimate D2E/DX2                !
 ! D9    D(6,2,4,9)             42.6617         estimate D2E/DX2                !
 ! D10   D(3,2,5,7)             35.3291         estimate D2E/DX2                !
 ! D11   D(4,2,5,7)            -83.7654         estimate D2E/DX2                !
 ! D12   D(6,2,5,7)            159.3967         estimate D2E/DX2                !
 ! D13   D(3,2,6,8)             88.6226         estimate D2E/DX2                !
 ! D14   D(4,2,6,8)           -153.525          estimate D2E/DX2                !
 ! D15   D(5,2,6,8)            -32.1996         estimate D2E/DX2                !
 --------------------------------------------------------------------------------
 Trust Radius=3.00D-01 FncErr=1.00D-07 GrdErr=1.00D-06 EigMax=2.50D+02 EigMin=1.00D-04
 Number of steps in this run=     62 maximum allowed number of steps=    100.
 GradGradGradGradGradGradGradGradGradGradGradGradGradGradGradGradGradGrad

                          Input orientation:                          
 ---------------------------------------------------------------------
 Center     Atomic      Atomic             Coordinates (Angstroms)
 Number     Number       Type             X           Y           Z
 ---------------------------------------------------------------------
      1         40           0        1.378390   -0.013670   -0.010290
      2         14           0       -2.172580    0.028570    0.011350
      3          8           0       -0.574980   -0.284420    0.016540
      4          8           0       -2.360450    1.505630    0.729630
      5          8           0       -2.989730   -1.198250    0.778680
      6          8           0       -2.856450    0.128930   -1.491970
      7          1           0       -2.541360   -1.601810    1.529990
      8          1           0       -3.176600   -0.702880   -1.858710
      9          1           0       -3.220760    1.924340    0.615150
     10          8           0        2.152390   -1.313120   -1.219600
     11          1           0        2.657510   -1.851050   -1.828870
     12          8           0        2.044020   -0.292070    1.787580
     13          1           0        2.510110   -0.316100    2.623130
     14          8           0        1.781950    1.775200   -0.611100
     15          1           0        1.913990    2.684420   -0.879110
 ---------------------------------------------------------------------
                    Distance matrix (angstroms):
                    1          2          3          4          5
     1  Zr   0.000000
     2  Si   3.551287   0.000000
     3  O    1.972227   1.627979   0.000000
     4  O    4.103008   1.653157   2.626914   0.000000
     5  O    4.594146   1.661811   2.692018   2.776575   0.000000
     6  O    4.488828   1.654606   2.766146   2.660230   2.633443
     7  H    4.501010   2.258408   2.809395   3.213952   0.963516
     8  H    4.963829   2.245039   3.234207   3.499017   2.690007
     9  H    5.029835   2.248822   3.498158   0.963617   3.135392
    10  O    1.936512   4.692626   3.166198   5.666619   5.517945
    11  H    2.884328   5.499923   4.038423   6.556916   6.254341
    12  O    1.937242   4.586667   3.161614   4.873432   5.213222
    13  H    2.882214   5.372874   4.038947   5.534112   5.867574
    14  O    1.929738   4.367662   3.192348   4.362305   5.791530
    15  H    2.884685   4.954444   3.976326   4.716824   6.470693
                    6          7          8          9         10
     6  O    0.000000
     7  H    3.496711   0.000000
     8  H    0.963796   3.562989   0.000000
     9  H    2.792163   3.705705   3.608908   0.000000
    10  O    5.219403   5.447465   5.401758   6.535916   0.000000
    11  H    5.868354   6.194539   5.946093   7.401409   0.956935
    12  O    5.911624   4.775718   6.381149   5.831378   3.177644
    13  H    6.777320   5.325913   7.250873   6.472590   3.986049
    14  O    5.000089   5.888928   5.681956   5.152964   3.169419
    15  H    5.446396   6.635185   6.192538   5.401499   4.019091
                   11         12         13         14         15
    11  H    0.000000
    12  O    3.985662   0.000000
    13  H    4.711486   0.957059   0.000000
    14  O    3.924189   3.177413   3.919693   0.000000
    15  H    4.693118   3.998454   4.650179   0.957050   0.000000
 Stoichiometry    H6O7SiZr
 Framework group  C1[X(H6O7SiZr)]
 Deg. of freedom    39
 Full point group                 C1      NOp   1
 Largest Abelian subgroup         C1      NOp   1
 Largest concise Abelian subgroup C1      NOp   1
                         Standard orientation:                         
 ---------------------------------------------------------------------
 Center     Atomic      Atomic             Coordinates (Angstroms)
 Number     Number       Type             X           Y           Z
 ---------------------------------------------------------------------
      1         40           0        1.374999   -0.015321   -0.010447
      2         14           0       -2.176189   -0.025903    0.013825
      3          8           0       -0.574136   -0.315284    0.013511
      4          8           0       -2.385297    1.437516    0.753830
      5          8           0       -2.974524   -1.275801    0.763515
      6          8           0       -2.862646    0.086392   -1.487471
      7          1           0       -2.519651   -1.683673    1.508562
      8          1           0       -3.170760   -0.744588   -1.866207
      9          1           0       -3.251788    1.845097    0.646000
     10          8           0        2.167164   -1.285296   -1.239153
     11          1           0        2.679698   -1.806698   -1.856545
     12          8           0        2.046079   -0.310210    1.782761
     13          1           0        2.513129   -0.339609    2.617604
     14          8           0        1.751616    1.787946   -0.585146
     15          1           0        1.869999    2.702854   -0.839846
 ---------------------------------------------------------------------
 Rotational constants (GHZ):           1.6326068           0.4777708           0.4752737
 General basis read from cards:  (5D, 7F)
 ======================================================================================================
                                       Pseudopotential Parameters
 ======================================================================================================
  Center     Atomic      Valence      Angular      Power
  Number     Number     Electrons     Momentum     of R      Exponent        Coefficient   SO-Coeffient
 ======================================================================================================
    1         40           12
                                      G and up 
                                                     2        1.0000000        0.00000000    0.00000000
                                      S - G
                                                     2        8.6365280      150.24299400    0.00000000
                                                     2        3.7176390       18.78003600    0.00000000
                                      P - G
                                                     2        7.6267280       33.19279100    0.00000000
                                                     2        7.4532070       66.38903900    0.00000000
                                                     2        3.3583890        4.62072600    0.00000000
                                                     2        3.2297380        9.26027000    0.00000000
                                      D - G
                                                     2        5.9380860       13.99338300    0.00000000
                                                     2        5.8255440       20.99588200    0.00000000
                                                     2        2.2050190        2.28516600    0.00000000
                                                     2        2.2062920        3.44126000    0.00000000
                                      F - G
                                                     2        4.8002150       -5.23932000    0.00000000
                                                     2        4.7989920       -6.98742400    0.00000000
    2         14
                                   No pseudopotential on this center.
    3          8
                                   No pseudopotential on this center.
    4          8
                                   No pseudopotential on this center.
    5          8
                                   No pseudopotential on this center.
    6          8
                                   No pseudopotential on this center.
    7          1
                                   No pseudopotential on this center.
    8          1
                                   No pseudopotential on this center.
    9          1
                                   No pseudopotential on this center.
   10          8
                                   No pseudopotential on this center.
   11          1
                                   No pseudopotential on this center.
   12          8
                                   No pseudopotential on this center.
   13          1
                                   No pseudopotential on this center.
   14          8
                                   No pseudopotential on this center.
   15          1
                                   No pseudopotential on this center.
 ======================================================================================================
 There are   300 symmetry adapted cartesian basis functions of A   symmetry.
 There are   266 symmetry adapted basis functions of A   symmetry.
   266 basis functions,   576 primitive gaussians,   300 cartesian basis functions
    44 alpha electrons       44 beta electrons
       nuclear repulsion energy       632.5402735838 Hartrees.
 NAtoms=   15 NActive=   15 NUniq=   15 SFac= 1.00D+00 NAtFMM=   60 NAOKFM=F Big=F
 Integral buffers will be    131072 words long.
 Raffenetti 2 integral format.
 Two-electron integral symmetry is turned on.
 Nuclear repulsion after empirical dispersion term =      632.5300413732 Hartrees.
 One-electron integrals computed using PRISM.
 PrsmSu:  requested number of processors reduced to:   4 ShMem   1 Linda.
   1 Symmetry operations used in ECPInt.
 ECPInt:  NShTT=    3321 NPrTT=   20810 LenC2=    3174 LenP2D=   14998.
 LDataN:  DoStor=T MaxTD1= 8 Len=  415
 NBasis=   266 RedAO= T EigKep=  1.03D-04  NBF=   266
 NBsUse=   266 1.00D-06 EigRej= -1.00D+00 NBFU=   266
 Defaulting to unpruned grid for atomic number  40.
 ExpMin= 1.01D-02 ExpMax= 1.61D+04 ExpMxC= 2.43D+03 IAcc=3 IRadAn=         5 AccDes= 0.00D+00
 Harris functional with IExCor=  402 and IRadAn=       5 diagonalized for initial guess.
 HarFok:  IExCor=  402 AccDes= 0.00D+00 IRadAn=         5 IDoV= 1 UseB2=F ITyADJ=14
 ICtDFT=  3500011 ScaDFX=  1.000000  1.000000  1.000000  1.000000
 Defaulting to unpruned grid for atomic number  40.
 FoFCou: FMM=F IPFlag=           0 FMFlag=      100000 FMFlg1=           0
         NFxFlg=           0 DoJE=T BraDBF=F KetDBF=T FulRan=T
         wScrn=  0.000000 ICntrl=       500 IOpCl=  0 I1Cent=   200000004 NGrid=           0
         NMat0=    1 NMatS0=      1 NMatT0=    0 NMatD0=    1 NMtDS0=    0 NMtDT0=    0
 Petite list used in FoFCou.
 Requested convergence on RMS density matrix=1.00D-08 within 128 cycles.
 Requested convergence on MAX density matrix=1.00D-06.
 Requested convergence on             energy=1.00D-06.
 No special actions if energy rises.
 Defaulting to unpruned grid for atomic number  40.
 Defaulting to unpruned grid for atomic number  40.
 Defaulting to unpruned grid for atomic number  40.
 Defaulting to unpruned grid for atomic number  40.
 Defaulting to unpruned grid for atomic number  40.
 Defaulting to unpruned grid for atomic number  40.
 Defaulting to unpruned grid for atomic number  40.
 Defaulting to unpruned grid for atomic number  40.
 Defaulting to unpruned grid for atomic number  40.
 Defaulting to unpruned grid for atomic number  40.
 Defaulting to unpruned grid for atomic number  40.
 Defaulting to unpruned grid for atomic number  40.
 Defaulting to unpruned grid for atomic number  40.
 Defaulting to unpruned grid for atomic number  40.
 Defaulting to unpruned grid for atomic number  40.
 Defaulting to unpruned grid for atomic number  40.
 SCF Done:  E(RB3LYP) =  -867.127844996     A.U. after   13 cycles
            NFock= 13  Conv=0.30D-08     -V/T= 2.0439

 **********************************************************************

            Population analysis using the SCF Density.

 **********************************************************************

 Orbital symmetries:
       Occupied  (A) (A) (A) (A) (A) (A) (A) (A) (A) (A) (A) (A)
                 (A) (A) (A) (A) (A) (A) (A) (A) (A) (A) (A) (A)
                 (A) (A) (A) (A) (A) (A) (A) (A) (A) (A) (A) (A)
                 (A) (A) (A) (A) (A) (A) (A) (A)
       Virtual   (A) (A) (A) (A) (A) (A) (A) (A) (A) (A) (A) (A)
                 (A) (A) (A) (A) (A) (A) (A) (A) (A) (A) (A) (A)
                 (A) (A) (A) (A) (A) (A) (A) (A) (A) (A) (A) (A)
                 (A) (A) (A) (A) (A) (A) (A) (A) (A) (A) (A) (A)
                 (A) (A) (A) (A) (A) (A) (A) (A) (A) (A) (A) (A)
                 (A) (A) (A) (A) (A) (A) (A) (A) (A) (A) (A) (A)
                 (A) (A) (A) (A) (A) (A) (A) (A) (A) (A) (A) (A)
                 (A) (A) (A) (A) (A) (A) (A) (A) (A) (A) (A) (A)
                 (A) (A) (A) (A) (A) (A) (A) (A) (A) (A) (A) (A)
                 (A) (A) (A) (A) (A) (A) (A) (A) (A) (A) (A) (A)
                 (A) (A) (A) (A) (A) (A) (A) (A) (A) (A) (A) (A)
                 (A) (A) (A) (A) (A) (A) (A) (A) (A) (A) (A) (A)
                 (A) (A) (A) (A) (A) (A) (A) (A) (A) (A) (A) (A)
                 (A) (A) (A) (A) (A) (A) (A) (A) (A) (A) (A) (A)
                 (A) (A) (A) (A) (A) (A) (A) (A) (A) (A) (A) (A)
                 (A) (A) (A) (A) (A) (A) (A) (A) (A) (A) (A) (A)
                 (A) (A) (A) (A) (A) (A) (A) (A) (A) (A) (A) (A)
                 (A) (A) (A) (A) (A) (A) (A) (A) (A) (A) (A) (A)
                 (A) (A) (A) (A) (A) (A)
 The electronic state is 1-A.
 Alpha  occ. eigenvalues --  -66.19953 -19.15201 -19.15162 -19.14948 -19.14382
 Alpha  occ. eigenvalues --  -19.14273 -19.14199 -19.13215  -5.34052  -3.70017
 Alpha  occ. eigenvalues --   -3.70010  -3.69973  -2.11204  -1.27513  -1.27407
 Alpha  occ. eigenvalues --   -1.27100  -1.02802  -0.99621  -0.99434  -0.96615
 Alpha  occ. eigenvalues --   -0.95411  -0.95347  -0.94123  -0.57472  -0.52285
 Alpha  occ. eigenvalues --   -0.51599  -0.50341  -0.49660  -0.49605  -0.45642
 Alpha  occ. eigenvalues --   -0.39597  -0.37757  -0.37286  -0.36053  -0.35626
 Alpha  occ. eigenvalues --   -0.34678  -0.34234  -0.33936  -0.32916  -0.32768
 Alpha  occ. eigenvalues --   -0.32043  -0.31278  -0.31207  -0.30690
 Alpha virt. eigenvalues --   -0.02913  -0.01296  -0.00706  -0.00553   0.00302
 Alpha virt. eigenvalues --    0.00392   0.01053   0.01242   0.01765   0.02369
 Alpha virt. eigenvalues --    0.02404   0.02975   0.03191   0.03300   0.03372
 Alpha virt. eigenvalues --    0.04270   0.04523   0.04627   0.05332   0.05755
 Alpha virt. eigenvalues --    0.06761   0.09113   0.09584   0.09842   0.10053
 Alpha virt. eigenvalues --    0.10177   0.11315   0.12469   0.13331   0.13806
 Alpha virt. eigenvalues --    0.14733   0.15469   0.16001   0.16385   0.17970
 Alpha virt. eigenvalues --    0.18238   0.18334   0.19072   0.19509   0.19929
 Alpha virt. eigenvalues --    0.20193   0.20352   0.21341   0.21724   0.22475
 Alpha virt. eigenvalues --    0.23401   0.24314   0.25113   0.26203   0.26559
 Alpha virt. eigenvalues --    0.27126   0.27418   0.27861   0.28425   0.28550
 Alpha virt. eigenvalues --    0.29101   0.29506   0.29659   0.29854   0.30774
 Alpha virt. eigenvalues --    0.31226   0.32951   0.34191   0.34616   0.35458
 Alpha virt. eigenvalues --    0.35683   0.36467   0.36824   0.37857   0.39113
 Alpha virt. eigenvalues --    0.41804   0.44067   0.44316   0.46627   0.47761
 Alpha virt. eigenvalues --    0.48420   0.49362   0.50516   0.51778   0.52789
 Alpha virt. eigenvalues --    0.55077   0.57118   0.58221   0.60035   0.60687
 Alpha virt. eigenvalues --    0.61595   0.62424   0.62646   0.64695   0.65410
 Alpha virt. eigenvalues --    0.66645   0.68049   0.69391   0.72579   0.73903
 Alpha virt. eigenvalues --    0.74423   0.75985   0.77394   0.78803   0.81145
 Alpha virt. eigenvalues --    0.85764   0.85974   0.96135   0.97771   0.98786
 Alpha virt. eigenvalues --    1.01758   1.02514   1.04521   1.05710   1.06561
 Alpha virt. eigenvalues --    1.07800   1.18675   1.19852   1.20568   1.21331
 Alpha virt. eigenvalues --    1.21562   1.22832   1.23500   1.23959   1.24302
 Alpha virt. eigenvalues --    1.25606   1.26531   1.28069   1.28663   1.28920
 Alpha virt. eigenvalues --    1.29261   1.30431   1.31244   1.31530   1.33017
 Alpha virt. eigenvalues --    1.33456   1.36707   1.42844   1.43464   1.45707
 Alpha virt. eigenvalues --    1.48810   1.52759   1.57163   1.59726   1.61060
 Alpha virt. eigenvalues --    1.62320   1.63163   1.63679   1.64596   1.67662
 Alpha virt. eigenvalues --    1.69679   1.71198   1.72325   1.72924   1.73143
 Alpha virt. eigenvalues --    1.73846   1.73975   1.75077   1.76716   1.77350
 Alpha virt. eigenvalues --    1.79414   1.80518   1.83139   1.83425   1.84514
 Alpha virt. eigenvalues --    1.86420   1.87688   1.91000   1.91223   1.92320
 Alpha virt. eigenvalues --    1.93164   1.94221   1.95215   1.95935   1.97216
 Alpha virt. eigenvalues --    1.99026   1.99677   2.00405   2.01980   2.07010
 Alpha virt. eigenvalues --    2.07975   2.08692   2.09981   2.14206   2.17434
 Alpha virt. eigenvalues --    2.19893   2.20678   2.21507   2.26338   2.31827
 Alpha virt. eigenvalues --    2.38381   2.41957   2.42448   2.43451   2.45253
 Alpha virt. eigenvalues --    2.50710   2.58454   2.60104   2.62481   2.63410
 Alpha virt. eigenvalues --    2.64933   2.67182   2.68435   2.68605   2.73080
 Alpha virt. eigenvalues --    2.78751   2.80448   2.81085   2.83777   2.87716
 Alpha virt. eigenvalues --    2.90293   2.91312   2.91502   2.92681   2.94043
 Alpha virt. eigenvalues --    3.00999   3.15502   3.46651   3.48433   3.51142
 Alpha virt. eigenvalues --    3.54744   3.58438   3.83066   4.13386   4.14809
 Alpha virt. eigenvalues --    4.18602  30.98968
          Condensed to atoms (all electrons):
               1          2          3          4          5          6
     1  Zr  10.446800   0.144185  -0.032656   0.006264  -0.080385  -0.041529
     2  Si   0.144185  12.940394  -0.705182  -0.071866  -0.145720   0.012130
     3  O   -0.032656  -0.705182   8.955102   0.107433   0.288816   0.098291
     4  O    0.006264  -0.071866   0.107433   8.565437  -0.030457   0.029602
     5  O   -0.080385  -0.145720   0.288816  -0.030457   8.539260   0.021743
     6  O   -0.041529   0.012130   0.098291   0.029602   0.021743   8.523169
     7  H   -0.003814   0.029267  -0.001861  -0.006437   0.241580   0.006586
     8  H    0.001451   0.060108  -0.021390   0.006486  -0.005367   0.233116
     9  H   -0.004908   0.036018   0.010643   0.224717  -0.005613  -0.005506
    10  O    0.029943  -0.012266  -0.025558   0.000620   0.001025   0.000934
    11  H   -0.087392   0.000686  -0.001110   0.000001   0.000002   0.000005
    12  O    0.034518  -0.012667  -0.026406   0.000067   0.001714   0.000221
    13  H   -0.086453   0.000749  -0.000823  -0.000000   0.000002   0.000001
    14  O    0.024162  -0.017536  -0.025086   0.002855   0.001020  -0.000906
    15  H   -0.090285   0.001004  -0.000492   0.000094   0.000003   0.000015
               7          8          9         10         11         12
     1  Zr  -0.003814   0.001451  -0.004908   0.029943  -0.087392   0.034518
     2  Si   0.029267   0.060108   0.036018  -0.012266   0.000686  -0.012667
     3  O   -0.001861  -0.021390   0.010643  -0.025558  -0.001110  -0.026406
     4  O   -0.006437   0.006486   0.224717   0.000620   0.000001   0.000067
     5  O    0.241580  -0.005367  -0.005613   0.001025   0.000002   0.001714
     6  O    0.006586   0.233116  -0.005506   0.000934   0.000005   0.000221
     7  H    0.370662   0.000055   0.000092   0.000014   0.000000  -0.000053
     8  H    0.000055   0.358606   0.000061  -0.000016   0.000000  -0.000007
     9  H    0.000092   0.000061   0.368554  -0.000001  -0.000000  -0.000013
    10  O    0.000014  -0.000016  -0.000001   8.609155   0.327438  -0.031940
    11  H    0.000000   0.000000  -0.000000   0.327438   0.382268  -0.000816
    12  O   -0.000053  -0.000007  -0.000013  -0.031940  -0.000816   8.604389
    13  H   -0.000000  -0.000000  -0.000000  -0.000747  -0.000008   0.325811
    14  O   -0.000005   0.000012  -0.000071  -0.035266  -0.001348  -0.037373
    15  H    0.000000  -0.000000  -0.000000  -0.000688  -0.000008  -0.000955
              13         14         15
     1  Zr  -0.086453   0.024162  -0.090285
     2  Si   0.000749  -0.017536   0.001004
     3  O   -0.000823  -0.025086  -0.000492
     4  O   -0.000000   0.002855   0.000094
     5  O    0.000002   0.001020   0.000003
     6  O    0.000001  -0.000906   0.000015
     7  H   -0.000000  -0.000005   0.000000
     8  H   -0.000000   0.000012  -0.000000
     9  H   -0.000000  -0.000071  -0.000000
    10  O   -0.000747  -0.035266  -0.000688
    11  H   -0.000008  -0.001348  -0.000008
    12  O    0.325811  -0.037373  -0.000955
    13  H    0.382265  -0.001503  -0.000011
    14  O   -0.001503   8.609506   0.331713
    15  H   -0.000011   0.331713   0.378885
 Mulliken charges:
               1
     1  Zr   1.740098
     2  Si   1.740694
     3  O   -0.619720
     4  O   -0.834815
     5  O   -0.827624
     6  O   -0.877871
     7  H    0.363913
     8  H    0.366884
     9  H    0.376027
    10  O   -0.862646
    11  H    0.380283
    12  O   -0.856489
    13  H    0.380716
    14  O   -0.850174
    15  H    0.380725
 Sum of Mulliken charges =  -0.00000
 Mulliken charges with hydrogens summed into heavy atoms:
               1
     1  Zr   1.740098
     2  Si   1.740694
     3  O   -0.619720
     4  O   -0.458788
     5  O   -0.463711
     6  O   -0.510986
    10  O   -0.482364
    12  O   -0.475773
    14  O   -0.469450
 Electronic spatial extent (au):  <R**2>=           2241.8115
 Charge=              0.0000 electrons
 Dipole moment (field-independent basis, Debye):
    X=              1.7936    Y=             -0.5272    Z=              0.2824  Tot=              1.8907
 Quadrupole moment (field-independent basis, Debye-Ang):
   XX=            -68.9737   YY=            -68.1850   ZZ=            -67.9653
   XY=             -0.4102   XZ=             -0.0100   YZ=              0.5836
 Traceless Quadrupole moment (field-independent basis, Debye-Ang):
   XX=             -0.5990   YY=              0.1897   ZZ=              0.4094
   XY=             -0.4102   XZ=             -0.0100   YZ=              0.5836
 Octapole moment (field-independent basis, Debye-Ang**2):
  XXX=             51.1438  YYY=             15.7668  ZZZ=             12.2651  XYY=             18.9353
  XXY=              7.8273  XXZ=             -1.7987  XZZ=             28.6454  YZZ=            -19.3079
  YYZ=            -10.0924  XYZ=             -3.3991
 Hexadecapole moment (field-independent basis, Debye-Ang**3):
 XXXX=          -1895.9330 YYYY=           -350.1905 ZZZZ=           -348.8715 XXXY=           -101.0189
 XXXZ=             19.5441 YYYX=             10.9978 YYYZ=            -18.4386 ZZZX=             31.5832
 ZZZY=              7.7262 XXYY=           -335.9842 XXZZ=           -317.9532 YYZZ=           -114.4333
 XXYZ=             54.0885 YYXZ=            -36.3066 ZZXY=             14.3177
 N-N= 6.325300413732D+02 E-N=-3.302610294531D+03  KE= 8.306854057759D+02
 PrsmSu:  requested number of processors reduced to:   2 ShMem   1 Linda.
 PrsmSu:  requested number of processors reduced to:  10 ShMem   1 Linda.
   1 Symmetry operations used in ECPInt.
 ECPInt:  NShTT=    3321 NPrTT=   20810 LenC2=    3174 LenP2D=   14998.
 LDataN:  DoStor=T MaxTD1= 9 Len=  602
 Calling FoFJK, ICntrl=      2127 FMM=F ISym2X=0 I1Cent= 0 IOpClX= 0 NMat=1 NMatS=1 NMatT=0.
 CoulSu:  requested number of processors reduced to:  10 ShMem   1 Linda.
 Defaulting to unpruned grid for atomic number  40.
 Defaulting to unpruned grid for atomic number  40.
 Defaulting to unpruned grid for atomic number  40.
 Defaulting to unpruned grid for atomic number  40.
 Defaulting to unpruned grid for atomic number  40.
 Defaulting to unpruned grid for atomic number  40.
 Defaulting to unpruned grid for atomic number  40.
 Defaulting to unpruned grid for atomic number  40.
 Defaulting to unpruned grid for atomic number  40.
 Defaulting to unpruned grid for atomic number  40.
 Defaulting to unpruned grid for atomic number  40.
 Defaulting to unpruned grid for atomic number  40.
 Defaulting to unpruned grid for atomic number  40.
 Defaulting to unpruned grid for atomic number  40.
 Defaulting to unpruned grid for atomic number  40.
 Defaulting to unpruned grid for atomic number  40.
 ***** Axes restored to original set *****
 -------------------------------------------------------------------
 Center     Atomic                   Forces (Hartrees/Bohr)
 Number     Number              X              Y              Z
 -------------------------------------------------------------------
      1       40           0.000385304    0.000034282    0.000023227
      2       14          -0.000127177   -0.000271061    0.000006331
      3        8          -0.000230034    0.000148859   -0.000025591
      4        8          -0.000004281    0.000084396    0.000007113
      5        8           0.000018938    0.000049871   -0.000014400
      6        8          -0.000010670    0.000031204   -0.000004964
      7        1           0.000010053   -0.000007798   -0.000011923
      8        1           0.000006248    0.000001175   -0.000000568
      9        1          -0.000001732    0.000009223    0.000018926
     10        8          -0.000012324   -0.000019913   -0.000022819
     11        1          -0.000001820    0.000000350    0.000004489
     12        8           0.000005100    0.000006929    0.000013871
     13        1          -0.000002334   -0.000002775   -0.000002967
     14        8          -0.000032951   -0.000064718   -0.000003682
     15        1          -0.000002321   -0.000000024    0.000012957
 -------------------------------------------------------------------
 Cartesian Forces:  Max     0.000385304 RMS     0.000086227

 GradGradGradGradGradGradGradGradGradGradGradGradGradGradGradGradGradGrad
 Berny optimization.
 FormGI is forming the generalized inverse of G from B-inverse, IUseBI=4.
 Internal  Forces:  Max     0.000331743 RMS     0.000066783
 Search for a local minimum.
 Step number   1 out of a maximum of   62
 All quantities printed in internal units (Hartrees-Bohrs-Radians)
 Mixed Optimization -- En-DIIS/RFO-DIIS
 Second derivative matrix not updated -- first step.
 ITU=  0
     Eigenvalues ---    0.00230   0.01596   0.01596   0.01597   0.01597
     Eigenvalues ---    0.01598   0.01598   0.03522   0.03617   0.03636
     Eigenvalues ---    0.03969   0.11780   0.12039   0.12694   0.15564
     Eigenvalues ---    0.15873   0.16000   0.16000   0.16000   0.19500
     Eigenvalues ---    0.20181   0.21252   0.21482   0.21527   0.21945
     Eigenvalues ---    0.25000   0.25000   0.25000   0.40909   0.41959
     Eigenvalues ---    0.42175   0.46116   0.54665   0.54703   0.54724
     Eigenvalues ---    0.56111   0.56113   0.561381000.000001000.00000
     Eigenvalues --- 1000.000001000.000001000.000001000.000001000.00000
     Eigenvalues --- 1000.000001000.000001000.000001000.000001000.00000
     Eigenvalues --- 1000.000001000.00000
 RFO step:  Lambda=-1.28037023D-06 EMin= 2.30000000D-03
 Linear search not attempted -- first point.
 Iteration  1 RMS(Cart)=  0.00817721 RMS(Int)=  0.00001226
 Iteration  2 RMS(Cart)=  0.00001969 RMS(Int)=  0.00000001
 Iteration  3 RMS(Cart)=  0.00000000 RMS(Int)=  0.00000001
 Iteration  1 RMS(Cart)=  0.00000000 RMS(Int)=  0.00000000
 Variable       Old X    -DE/DX   Delta X   Delta X   Delta X     New X
                                 (Linear)    (Quad)   (Total)
    R1        3.72697   0.00033   0.00000   0.00175   0.00175   3.72872
    R2        3.65948   0.00002   0.00000   0.00009   0.00009   3.65956
    R3        3.66086   0.00001   0.00000   0.00005   0.00005   3.66091
    R4        3.64668  -0.00007   0.00000  -0.00032  -0.00032   3.64636
    R5        3.07643   0.00008   0.00000   0.00015   0.00015   3.07659
    R6        3.12401   0.00010   0.00000   0.00023   0.00023   3.12424
    R7        3.14037  -0.00006   0.00000  -0.00014  -0.00014   3.14023
    R8        3.12675   0.00001   0.00000   0.00002   0.00002   3.12677
    R9        1.82097   0.00000   0.00000   0.00001   0.00001   1.82098
   R10        1.82078  -0.00000   0.00000  -0.00000  -0.00000   1.82078
   R11        1.82131  -0.00000   0.00000  -0.00000  -0.00000   1.82131
   R12        1.80835  -0.00000   0.00000  -0.00001  -0.00001   1.80834
   R13        1.80858  -0.00000   0.00000  -0.00001  -0.00001   1.80857
   R14        1.80856  -0.00000   0.00000  -0.00001  -0.00001   1.80856
    A1        1.88835  -0.00005   0.00000  -0.00022  -0.00022   1.88813
    A2        1.88384   0.00002   0.00000   0.00010   0.00010   1.88394
    A3        1.91625  -0.00005   0.00000  -0.00023  -0.00023   1.91602
    A4        1.92387   0.00003   0.00000   0.00014   0.00014   1.92402
    A5        1.92200   0.00003   0.00000   0.00009   0.00009   1.92209
    A6        1.92870   0.00002   0.00000   0.00011   0.00011   1.92880
    A7        0.18180  -0.00013   0.00000   0.00000  -0.00000   0.18180
    A8        1.85659  -0.00002   0.00000  -0.00018  -0.00018   1.85641
    A9        1.91680  -0.00000   0.00000   0.00001   0.00001   1.91682
   A10        2.00442   0.00002   0.00000   0.00011   0.00011   2.00453
   A11        1.98570   0.00002   0.00000   0.00009   0.00009   1.98578
   A12        1.86879  -0.00002   0.00000  -0.00015  -0.00015   1.86863
   A13        1.83492   0.00001   0.00000   0.00013   0.00013   1.83505
   A14        2.80998   0.00025   0.00000   0.00006   0.00006   2.81005
   A15        2.02425   0.00003   0.00000   0.00018   0.00018   2.02444
   A16        2.02688  -0.00001   0.00000  -0.00005  -0.00005   2.02682
   A17        2.01603  -0.00000   0.00000  -0.00001  -0.00001   2.01602
   A18        3.26812   0.00000   0.00000   0.00020   0.00020   3.26832
   A19        3.32672  -0.00000   0.00000  -0.00019  -0.00019   3.32653
   A20        3.06176  -0.00001   0.00000  -0.00057  -0.00057   3.06119
   A21        3.01603   0.00001   0.00000   0.00038   0.00038   3.01640
   A22        3.20719  -0.00000   0.00000  -0.00009  -0.00009   3.20710
   A23        3.12651  -0.00002   0.00000  -0.00114  -0.00114   3.12536
    D1       -2.38082  -0.00001   0.00000  -0.00830  -0.00830  -2.38912
    D2        1.82067  -0.00002   0.00000  -0.00841  -0.00841   1.81226
    D3       -0.28277  -0.00003   0.00000  -0.00847  -0.00847  -0.29124
    D4       -0.52209  -0.00000   0.00000  -0.00031  -0.00031  -0.52240
    D5       -2.67829  -0.00001   0.00000  -0.00031  -0.00031  -2.67861
    D6        1.54170  -0.00004   0.00000  -0.00056  -0.00056   1.54114
    D7        2.89578   0.00001   0.00000   0.00017   0.00017   2.89595
    D8       -1.27481  -0.00000   0.00000   0.00011   0.00011  -1.27470
    D9        0.74459   0.00001   0.00000   0.00022   0.00022   0.74481
   D10        0.61661  -0.00003   0.00000  -0.00038  -0.00038   0.61623
   D11       -1.46198  -0.00001   0.00000  -0.00021  -0.00021  -1.46220
   D12        2.78200   0.00001   0.00000  -0.00016  -0.00016   2.78184
   D13        1.54676   0.00001   0.00000   0.00005   0.00005   1.54681
   D14       -2.67952  -0.00002   0.00000  -0.00021  -0.00021  -2.67973
   D15       -0.56199  -0.00000   0.00000  -0.00012  -0.00012  -0.56211
         Item               Value     Threshold  Converged?
 Maximum Force            0.000341     0.000450     YES
 RMS     Force            0.000055     0.000300     YES
 Maximum Displacement     0.021019     0.001800     NO 
 RMS     Displacement     0.008178     0.001200     NO 
 Predicted change in Energy=-6.401829D-07
 GradGradGradGradGradGradGradGradGradGradGradGradGradGradGradGradGradGrad

                          Input orientation:                          
 ---------------------------------------------------------------------
 Center     Atomic      Atomic             Coordinates (Angstroms)
 Number     Number       Type             X           Y           Z
 ---------------------------------------------------------------------
      1         40           0        1.379007   -0.013581   -0.011067
      2         14           0       -2.172973    0.028482    0.011877
      3          8           0       -0.575284   -0.284509    0.015028
      4          8           0       -2.360421    1.501866    0.738047
      5          8           0       -2.989890   -1.202308    0.772909
      6          8           0       -2.857309    0.137126   -1.490668
      7          1           0       -2.541158   -1.609989    1.521773
      8          1           0       -3.177589   -0.692651   -1.861866
      9          1           0       -3.220707    1.921365    0.626273
     10          8           0        2.153739   -1.317117   -1.215573
     11          1           0        2.659505   -1.857567   -1.822064
     12          8           0        2.043317   -0.285817    1.788264
     13          1           0        2.508342   -0.306660    2.624489
     14          8           0        1.782487    1.773169   -0.617667
     15          1           0        1.914384    2.681909   -0.887357
 ---------------------------------------------------------------------
                    Distance matrix (angstroms):
                    1          2          3          4          5
     1  Zr   0.000000
     2  Si   3.552303   0.000000
     3  O    1.973154   1.628061   0.000000
     4  O    4.103787   1.653276   2.626901   0.000000
     5  O    4.595100   1.661737   2.692036   2.776690   0.000000
     6  O    4.489800   1.654617   2.766321   2.660185   2.633523
     7  H    4.501756   2.258303   2.809241   3.214115   0.963515
     8  H    4.964792   2.245039   3.234394   3.499031   2.690172
     9  H    5.030664   2.249052   3.498251   0.963620   3.135620
    10  O    1.936557   4.694433   3.166738   5.669298   5.515810
    11  H    2.884384   5.502124   4.038971   6.560459   6.251313
    12  O    1.937269   4.586004   3.162505   4.867410   5.215752
    13  H    2.882264   5.371478   4.039620   5.525784   5.870357
    14  O    1.929569   4.368744   3.192715   4.367523   5.793337
    15  H    2.884472   4.955379   3.976478   4.723177   6.472675
                    6          7          8          9         10
     6  O    0.000000
     7  H    3.496736   0.000000
     8  H    0.963794   3.563084   0.000000
     9  H    2.792311   3.705964   3.609124   0.000000
    10  O    5.225046   5.442508   5.406544   6.539482   0.000000
    11  H    5.875701   6.187846   5.952335   7.406185   0.956931
    12  O    5.911549   4.779315   6.383324   5.825103   3.177862
    13  H    6.776553   5.330300   7.253012   6.463665   3.986582
    14  O    4.996647   5.892102   5.677205   5.157645   3.169415
    15  H    5.441411   6.638987   6.185913   5.407278   4.019606
                   11         12         13         14         15
    11  H    0.000000
    12  O    3.985543   0.000000
    13  H    4.711687   0.957055   0.000000
    14  O    3.924535   3.177414   3.919710   0.000000
    15  H    4.694223   3.997870   4.649451   0.957046   0.000000
 Stoichiometry    H6O7SiZr
 Framework group  C1[X(H6O7SiZr)]
 Deg. of freedom    39
 Full point group                 C1      NOp   1
 Largest Abelian subgroup         C1      NOp   1
 Largest concise Abelian subgroup C1      NOp   1
                         Standard orientation:                         
 ---------------------------------------------------------------------
 Center     Atomic      Atomic             Coordinates (Angstroms)
 Number     Number       Type             X           Y           Z
 ---------------------------------------------------------------------
      1         40           0        1.375462   -0.015322   -0.010433
      2         14           0       -2.176741   -0.025996    0.013938
      3          8           0       -0.574593   -0.315315    0.014527
      4          8           0       -2.385670    1.439682    0.749776
      5          8           0       -2.975030   -1.273684    0.767183
      6          8           0       -2.863243    0.082307   -1.487642
      7          1           0       -2.519998   -1.679555    1.513222
      8          1           0       -3.171363   -0.749681   -1.864147
      9          1           0       -3.252117    1.847120    0.641023
     10          8           0        2.168896   -1.299360   -1.223677
     11          1           0        2.682351   -1.828294   -1.833849
     12          8           0        2.044487   -0.289429    1.786866
     13          1           0        2.510123   -0.308841    2.622786
     14          8           0        1.752197    1.781125   -0.605483
     15          1           0        1.870515    2.693458   -0.869275
 ---------------------------------------------------------------------
 Rotational constants (GHZ):           1.6325469           0.4775973           0.4751024
 Basis read from rwf:  (5D, 7F)
 Pseudo-potential data read from rwf file.
 There are   300 symmetry adapted cartesian basis functions of A   symmetry.
 There are   266 symmetry adapted basis functions of A   symmetry.
   266 basis functions,   576 primitive gaussians,   300 cartesian basis functions
    44 alpha electrons       44 beta electrons
       nuclear repulsion energy       632.4852523431 Hartrees.
 NAtoms=   15 NActive=   15 NUniq=   15 SFac= 1.00D+00 NAtFMM=   60 NAOKFM=F Big=F
 Integral buffers will be    131072 words long.
 Raffenetti 2 integral format.
 Two-electron integral symmetry is turned on.
 Nuclear repulsion after empirical dispersion term =      632.4750216452 Hartrees.
 One-electron integrals computed using PRISM.
 PrsmSu:  requested number of processors reduced to:   4 ShMem   1 Linda.
   1 Symmetry operations used in ECPInt.
 ECPInt:  NShTT=    3321 NPrTT=   20810 LenC2=    3174 LenP2D=   14997.
 LDataN:  DoStor=T MaxTD1= 8 Len=  415
 NBasis=   266 RedAO= T EigKep=  1.03D-04  NBF=   266
 NBsUse=   266 1.00D-06 EigRej= -1.00D+00 NBFU=   266
 Defaulting to unpruned grid for atomic number  40.
 Initial guess from the checkpoint file:  "/localscratch/sarashs.35132336.0/Gau-11596.chk"
 B after Tr=    -0.000000   -0.000000   -0.000000
         Rot=    0.999992    0.003999    0.000098   -0.000011 Ang=   0.46 deg.
 ExpMin= 1.01D-02 ExpMax= 1.61D+04 ExpMxC= 2.43D+03 IAcc=3 IRadAn=         5 AccDes= 0.00D+00
 Harris functional with IExCor=  402 and IRadAn=       5 diagonalized for initial guess.
 HarFok:  IExCor=  402 AccDes= 0.00D+00 IRadAn=         5 IDoV= 1 UseB2=F ITyADJ=14
 ICtDFT=  3500011 ScaDFX=  1.000000  1.000000  1.000000  1.000000
 Defaulting to unpruned grid for atomic number  40.
 FoFCou: FMM=F IPFlag=           0 FMFlag=      100000 FMFlg1=           0
         NFxFlg=           0 DoJE=T BraDBF=F KetDBF=T FulRan=T
         wScrn=  0.000000 ICntrl=       500 IOpCl=  0 I1Cent=   200000004 NGrid=           0
         NMat0=    1 NMatS0=      1 NMatT0=    0 NMatD0=    1 NMtDS0=    0 NMtDT0=    0
 Petite list used in FoFCou.
 Requested convergence on RMS density matrix=1.00D-08 within 128 cycles.
 Requested convergence on MAX density matrix=1.00D-06.
 Requested convergence on             energy=1.00D-06.
 No special actions if energy rises.
 Defaulting to unpruned grid for atomic number  40.
 Defaulting to unpruned grid for atomic number  40.
 Defaulting to unpruned grid for atomic number  40.
 Defaulting to unpruned grid for atomic number  40.
 Defaulting to unpruned grid for atomic number  40.
 Defaulting to unpruned grid for atomic number  40.
 Defaulting to unpruned grid for atomic number  40.
 Defaulting to unpruned grid for atomic number  40.
 Defaulting to unpruned grid for atomic number  40.
 Defaulting to unpruned grid for atomic number  40.
 Defaulting to unpruned grid for atomic number  40.
 Defaulting to unpruned grid for atomic number  40.
 Defaulting to unpruned grid for atomic number  40.
 Defaulting to unpruned grid for atomic number  40.
 Defaulting to unpruned grid for atomic number  40.
 Defaulting to unpruned grid for atomic number  40.
 SCF Done:  E(RB3LYP) =  -867.127845427     A.U. after    8 cycles
            NFock=  8  Conv=0.58D-08     -V/T= 2.0439
 PrsmSu:  requested number of processors reduced to:   2 ShMem   1 Linda.
 PrsmSu:  requested number of processors reduced to:  10 ShMem   1 Linda.
   1 Symmetry operations used in ECPInt.
 ECPInt:  NShTT=    3321 NPrTT=   20810 LenC2=    3174 LenP2D=   14997.
 LDataN:  DoStor=T MaxTD1= 9 Len=  602
 Calling FoFJK, ICntrl=      2127 FMM=F ISym2X=0 I1Cent= 0 IOpClX= 0 NMat=1 NMatS=1 NMatT=0.
 CoulSu:  requested number of processors reduced to:  10 ShMem   1 Linda.
 Defaulting to unpruned grid for atomic number  40.
 Defaulting to unpruned grid for atomic number  40.
 Defaulting to unpruned grid for atomic number  40.
 Defaulting to unpruned grid for atomic number  40.
 Defaulting to unpruned grid for atomic number  40.
 Defaulting to unpruned grid for atomic number  40.
 Defaulting to unpruned grid for atomic number  40.
 Defaulting to unpruned grid for atomic number  40.
 Defaulting to unpruned grid for atomic number  40.
 Defaulting to unpruned grid for atomic number  40.
 Defaulting to unpruned grid for atomic number  40.
 Defaulting to unpruned grid for atomic number  40.
 Defaulting to unpruned grid for atomic number  40.
 Defaulting to unpruned grid for atomic number  40.
 Defaulting to unpruned grid for atomic number  40.
 Defaulting to unpruned grid for atomic number  40.
 ***** Axes restored to original set *****
 -------------------------------------------------------------------
 Center     Atomic                   Forces (Hartrees/Bohr)
 Number     Number              X              Y              Z
 -------------------------------------------------------------------
      1       40          -0.000024522   -0.000099593    0.000076927
      2       14           0.000011829   -0.000167985    0.000016789
      3        8           0.000061002    0.000185523   -0.000035573
      4        8          -0.000009381    0.000042693   -0.000003346
      5        8          -0.000009941    0.000021653    0.000000161
      6        8          -0.000015594    0.000017196   -0.000004516
      7        1           0.000009874   -0.000007238   -0.000012698
      8        1           0.000004424   -0.000000842   -0.000002651
      9        1           0.000001617   -0.000002767    0.000013469
     10        8          -0.000019006    0.000010670    0.000006729
     11        1           0.000002993    0.000000170    0.000000640
     12        8           0.000000718    0.000011536   -0.000051462
     13        1          -0.000002763   -0.000001529    0.000003912
     14        8          -0.000014909   -0.000016938   -0.000014197
     15        1           0.000003659    0.000007450    0.000005817
 -------------------------------------------------------------------
 Cartesian Forces:  Max     0.000185523 RMS     0.000045268

 GradGradGradGradGradGradGradGradGradGradGradGradGradGradGradGradGradGrad
 Berny optimization.
 Using GEDIIS/GDIIS optimizer.
 FormGI is forming the generalized inverse of G from B-inverse, IUseBI=4.
 Internal  Forces:  Max     0.000215572 RMS     0.000038291
 Search for a local minimum.
 Step number   2 out of a maximum of   62
 All quantities printed in internal units (Hartrees-Bohrs-Radians)
 Mixed Optimization -- En-DIIS/RFO-DIIS
 Swapping is turned off.
 Update second derivatives using D2CorX and points    1    2
 DE= -4.32D-07 DEPred=-6.40D-07 R= 6.74D-01
 Trust test= 6.74D-01 RLast= 1.48D-02 DXMaxT set to 3.00D-01
 ITU=  0  0
     Eigenvalues ---    0.00121   0.01560   0.01596   0.01596   0.01598
     Eigenvalues ---    0.01598   0.01607   0.03487   0.03611   0.03627
     Eigenvalues ---    0.03911   0.11725   0.12011   0.12704   0.15440
     Eigenvalues ---    0.15843   0.15976   0.16000   0.16003   0.20045
     Eigenvalues ---    0.21055   0.21253   0.21518   0.21861   0.24451
     Eigenvalues ---    0.24817   0.25000   0.29211   0.40813   0.41817
     Eigenvalues ---    0.42000   0.47120   0.54666   0.54711   0.54725
     Eigenvalues ---    0.56111   0.56128   0.561441000.000001000.00000
     Eigenvalues --- 1000.000001000.000001000.000001000.000001000.00000
     Eigenvalues --- 1000.000001000.000001000.000001000.000001000.00000
     Eigenvalues --- 1000.000001000.00000
 En-DIIS/RFO-DIIS/Sim-DIIS IScMMF=       -3 using points:     2    1
 RFO step:  Lambda=-7.74878411D-07.
 DidBck=F Rises=F RFO-DIIS coefs:    2.60810   -1.60810
 Iteration  1 RMS(Cart)=  0.01335439 RMS(Int)=  0.00003264
 Iteration  2 RMS(Cart)=  0.00005237 RMS(Int)=  0.00000003
 Iteration  3 RMS(Cart)=  0.00000000 RMS(Int)=  0.00000003
 Iteration  1 RMS(Cart)=  0.00000004 RMS(Int)=  0.00000001
 Variable       Old X    -DE/DX   Delta X   Delta X   Delta X     New X
                                 (Linear)    (Quad)   (Total)
    R1        3.72872  -0.00006   0.00282  -0.00237   0.00045   3.72917
    R2        3.65956  -0.00002   0.00014  -0.00022  -0.00008   3.65948
    R3        3.66091  -0.00005   0.00008  -0.00036  -0.00028   3.66063
    R4        3.64636  -0.00001  -0.00052   0.00031  -0.00021   3.64615
    R5        3.07659  -0.00002   0.00025  -0.00025  -0.00000   3.07658
    R6        3.12424   0.00004   0.00036  -0.00012   0.00024   3.12448
    R7        3.14023  -0.00002  -0.00023   0.00010  -0.00013   3.14010
    R8        3.12677   0.00001   0.00003   0.00002   0.00005   3.12683
    R9        1.82098  -0.00000   0.00001  -0.00002  -0.00001   1.82097
   R10        1.82078  -0.00000  -0.00000  -0.00000  -0.00001   1.82077
   R11        1.82131   0.00000  -0.00001   0.00001   0.00000   1.82131
   R12        1.80834   0.00000  -0.00001   0.00001  -0.00000   1.80834
   R13        1.80857   0.00000  -0.00001   0.00001   0.00000   1.80858
   R14        1.80856   0.00001  -0.00001   0.00002   0.00001   1.80857
    A1        1.88813  -0.00002  -0.00035   0.00009  -0.00026   1.88787
    A2        1.88394   0.00004   0.00016   0.00017   0.00033   1.88428
    A3        1.91602  -0.00003  -0.00037   0.00009  -0.00028   1.91574
    A4        1.92402   0.00000   0.00023  -0.00013   0.00010   1.92412
    A5        1.92209   0.00000   0.00014  -0.00015  -0.00000   1.92208
    A6        1.92880   0.00000   0.00017  -0.00007   0.00010   1.92891
    A7        0.18180  -0.00012  -0.00000   0.00000  -0.00000   0.18180
    A8        1.85641  -0.00001  -0.00029   0.00014  -0.00015   1.85626
    A9        1.91682   0.00000   0.00002   0.00002   0.00004   1.91686
   A10        2.00453   0.00002   0.00018   0.00000   0.00018   2.00470
   A11        1.98578   0.00001   0.00014  -0.00006   0.00007   1.98586
   A12        1.86863  -0.00001  -0.00025   0.00003  -0.00021   1.86842
   A13        1.83505  -0.00000   0.00021  -0.00014   0.00007   1.83513
   A14        2.81005   0.00022   0.00010  -0.00008   0.00002   2.81007
   A15        2.02444   0.00001   0.00030  -0.00013   0.00017   2.02461
   A16        2.02682  -0.00001  -0.00009  -0.00002  -0.00011   2.02672
   A17        2.01602   0.00000  -0.00002   0.00002  -0.00001   2.01601
   A18        3.26832   0.00001   0.00032   0.00038   0.00071   3.26902
   A19        3.32653  -0.00001  -0.00030  -0.00057  -0.00087   3.32566
   A20        3.06119   0.00000  -0.00092   0.00079  -0.00013   3.06106
   A21        3.01640   0.00000   0.00060  -0.00026   0.00034   3.01675
   A22        3.20710   0.00000  -0.00015   0.00032   0.00017   3.20727
   A23        3.12536  -0.00001  -0.00184   0.00015  -0.00169   3.12368
    D1       -2.38912  -0.00000  -0.01336  -0.00018  -0.01354  -2.40266
    D2        1.81226  -0.00001  -0.01352  -0.00017  -0.01370   1.79856
    D3       -0.29124  -0.00003  -0.01362  -0.00025  -0.01386  -0.30510
    D4       -0.52240  -0.00001  -0.00050  -0.00003  -0.00053  -0.52293
    D5       -2.67861  -0.00001  -0.00051  -0.00005  -0.00056  -2.67916
    D6        1.54114  -0.00002  -0.00090   0.00011  -0.00080   1.54035
    D7        2.89595   0.00001   0.00027   0.00004   0.00031   2.89626
    D8       -1.27470   0.00001   0.00018   0.00013   0.00031  -1.27439
    D9        0.74481   0.00000   0.00036  -0.00005   0.00030   0.74511
   D10        0.61623  -0.00002  -0.00060  -0.00000  -0.00060   0.61563
   D11       -1.46220  -0.00001  -0.00035  -0.00015  -0.00050  -1.46269
   D12        2.78184   0.00000  -0.00025  -0.00007  -0.00032   2.78152
   D13        1.54681   0.00000   0.00008  -0.00011  -0.00003   1.54678
   D14       -2.67973  -0.00001  -0.00034   0.00009  -0.00025  -2.67998
   D15       -0.56211  -0.00001  -0.00019  -0.00004  -0.00023  -0.56235
         Item               Value     Threshold  Converged?
 Maximum Force            0.000054     0.000450     YES
 RMS     Force            0.000017     0.000300     YES
 Maximum Displacement     0.034282     0.001800     NO 
 RMS     Displacement     0.013355     0.001200     NO 
 Predicted change in Energy=-3.874679D-07
 GradGradGradGradGradGradGradGradGradGradGradGradGradGradGradGradGradGrad

                          Input orientation:                          
 ---------------------------------------------------------------------
 Center     Atomic      Atomic             Coordinates (Angstroms)
 Number     Number       Type             X           Y           Z
 ---------------------------------------------------------------------
      1         40           0        1.379178   -0.013544   -0.012287
      2         14           0       -2.173024    0.028423    0.012813
      3          8           0       -0.575346   -0.284623    0.012611
      4          8           0       -2.359911    1.495619    0.751837
      5          8           0       -2.989697   -1.208803    0.763457
      6          8           0       -2.858167    0.150488   -1.488363
      7          1           0       -2.540405   -1.623252    1.508254
      8          1           0       -3.178649   -0.675942   -1.866785
      9          1           0       -3.220218    1.916202    0.644414
     10          8           0        2.155224   -1.323497   -1.208890
     11          1           0        2.662453   -1.867718   -1.810769
     12          8           0        2.041607   -0.275718    1.789073
     13          1           0        2.504530   -0.291300    2.626580
     14          8           0        1.782721    1.769819   -0.628384
     15          1           0        1.915156    2.677565   -0.901162
 ---------------------------------------------------------------------
                    Distance matrix (angstroms):
                    1          2          3          4          5
     1  Zr   0.000000
     2  Si   3.552539   0.000000
     3  O    1.973389   1.628059   0.000000
     4  O    4.103931   1.653405   2.626860   0.000000
     5  O    4.595377   1.661670   2.692020   2.776809   0.000000
     6  O    4.490078   1.654645   2.766500   2.660100   2.633565
     7  H    4.501815   2.258171   2.808974   3.214359   0.963511
     8  H    4.965050   2.245061   3.234571   3.499027   2.690319
     9  H    5.030867   2.249277   3.498308   0.963617   3.135756
    10  O    1.936513   4.696167   3.166597   5.672594   5.511218
    11  H    2.884318   5.504783   4.039089   6.565297   6.245607
    12  O    1.937122   4.583744   3.162963   4.856630   5.218865
    13  H    2.882218   5.367822   4.039617   5.510946   5.873634
    14  O    1.929458   4.369384   3.192504   4.375111   5.795290
    15  H    2.884344   4.956463   3.976448   4.733456   6.475523
                    6          7          8          9         10
     6  O    0.000000
     7  H    3.496689   0.000000
     8  H    0.963794   3.563093   0.000000
     9  H    2.792412   3.706224   3.609302   0.000000
    10  O    5.233052   5.433384   5.413166   6.544140   0.000000
    11  H    5.886794   6.176197   5.961706   7.412948   0.956930
    12  O    5.910247   4.784301   6.385651   5.813910   3.177818
    13  H    6.773954   5.336302   7.255122   6.447851   3.987263
    14  O    4.989954   5.896403   5.668384   5.164382   3.169283
    15  H    5.432821   6.644873   6.174568   5.416692   4.020053
                   11         12         13         14         15
    11  H    0.000000
    12  O    3.984818   0.000000
    13  H    4.711698   0.957057   0.000000
    14  O    3.924747   3.177316   3.919695   0.000000
    15  H    4.695256   3.996902   4.648277   0.957052   0.000000
 Stoichiometry    H6O7SiZr
 Framework group  C1[X(H6O7SiZr)]
 Deg. of freedom    39
 Full point group                 C1      NOp   1
 Largest Abelian subgroup         C1      NOp   1
 Largest concise Abelian subgroup C1      NOp   1
                         Standard orientation:                         
 ---------------------------------------------------------------------
 Center     Atomic      Atomic             Coordinates (Angstroms)
 Number     Number       Type             X           Y           Z
 ---------------------------------------------------------------------
      1         40           0        1.375602   -0.015367   -0.010381
      2         14           0       -2.176836   -0.026104    0.014092
      3          8           0       -0.574678   -0.315349    0.015741
      4          8           0       -2.385665    1.442071    0.745256
      5          8           0       -2.975163   -1.271318    0.771233
      6          8           0       -2.863429    0.077751   -1.487792
      7          1           0       -2.519901   -1.675061    1.518281
      8          1           0       -3.171512   -0.755361   -1.861836
      9          1           0       -3.252111    1.849233    0.635493
     10          8           0        2.171275   -1.319996   -1.199890
     11          1           0        2.686658   -1.859814   -1.798800
     12          8           0        2.041509   -0.258049    1.792427
     13          1           0        2.504452   -0.262278    2.630057
     14          8           0        1.752697    1.770490   -0.635938
     15          1           0        1.871670    2.678637   -0.913540
 ---------------------------------------------------------------------
 Rotational constants (GHZ):           1.6326023           0.4775683           0.4750689
 Basis read from rwf:  (5D, 7F)
 Pseudo-potential data read from rwf file.
 There are   300 symmetry adapted cartesian basis functions of A   symmetry.
 There are   266 symmetry adapted basis functions of A   symmetry.
   266 basis functions,   576 primitive gaussians,   300 cartesian basis functions
    44 alpha electrons       44 beta electrons
       nuclear repulsion energy       632.4775214360 Hartrees.
 NAtoms=   15 NActive=   15 NUniq=   15 SFac= 1.00D+00 NAtFMM=   60 NAOKFM=F Big=F
 Integral buffers will be    131072 words long.
 Raffenetti 2 integral format.
 Two-electron integral symmetry is turned on.
 Nuclear repulsion after empirical dispersion term =      632.4672913981 Hartrees.
 One-electron integrals computed using PRISM.
 PrsmSu:  requested number of processors reduced to:   4 ShMem   1 Linda.
   1 Symmetry operations used in ECPInt.
 ECPInt:  NShTT=    3321 NPrTT=   20810 LenC2=    3174 LenP2D=   14995.
 LDataN:  DoStor=T MaxTD1= 8 Len=  415
 NBasis=   266 RedAO= T EigKep=  1.03D-04  NBF=   266
 NBsUse=   266 1.00D-06 EigRej= -1.00D+00 NBFU=   266
 Defaulting to unpruned grid for atomic number  40.
 Initial guess from the checkpoint file:  "/localscratch/sarashs.35132336.0/Gau-11596.chk"
 B after Tr=     0.000000    0.000000   -0.000000
         Rot=    0.999983    0.005794    0.000164   -0.000024 Ang=   0.66 deg.
 ExpMin= 1.01D-02 ExpMax= 1.61D+04 ExpMxC= 2.43D+03 IAcc=3 IRadAn=         5 AccDes= 0.00D+00
 Harris functional with IExCor=  402 and IRadAn=       5 diagonalized for initial guess.
 HarFok:  IExCor=  402 AccDes= 0.00D+00 IRadAn=         5 IDoV= 1 UseB2=F ITyADJ=14
 ICtDFT=  3500011 ScaDFX=  1.000000  1.000000  1.000000  1.000000
 Defaulting to unpruned grid for atomic number  40.
 FoFCou: FMM=F IPFlag=           0 FMFlag=      100000 FMFlg1=           0
         NFxFlg=           0 DoJE=T BraDBF=F KetDBF=T FulRan=T
         wScrn=  0.000000 ICntrl=       500 IOpCl=  0 I1Cent=   200000004 NGrid=           0
         NMat0=    1 NMatS0=      1 NMatT0=    0 NMatD0=    1 NMtDS0=    0 NMtDT0=    0
 Petite list used in FoFCou.
 Requested convergence on RMS density matrix=1.00D-08 within 128 cycles.
 Requested convergence on MAX density matrix=1.00D-06.
 Requested convergence on             energy=1.00D-06.
 No special actions if energy rises.
 Defaulting to unpruned grid for atomic number  40.
 Defaulting to unpruned grid for atomic number  40.
 Defaulting to unpruned grid for atomic number  40.
 Defaulting to unpruned grid for atomic number  40.
 Defaulting to unpruned grid for atomic number  40.
 Defaulting to unpruned grid for atomic number  40.
 Defaulting to unpruned grid for atomic number  40.
 Defaulting to unpruned grid for atomic number  40.
 Defaulting to unpruned grid for atomic number  40.
 Defaulting to unpruned grid for atomic number  40.
 Defaulting to unpruned grid for atomic number  40.
 Defaulting to unpruned grid for atomic number  40.
 Defaulting to unpruned grid for atomic number  40.
 Defaulting to unpruned grid for atomic number  40.
 Defaulting to unpruned grid for atomic number  40.
 Defaulting to unpruned grid for atomic number  40.
 SCF Done:  E(RB3LYP) =  -867.127845507     A.U. after    8 cycles
            NFock=  8  Conv=0.93D-08     -V/T= 2.0439
 PrsmSu:  requested number of processors reduced to:   2 ShMem   1 Linda.
 PrsmSu:  requested number of processors reduced to:  10 ShMem   1 Linda.
   1 Symmetry operations used in ECPInt.
 ECPInt:  NShTT=    3321 NPrTT=   20810 LenC2=    3174 LenP2D=   14995.
 LDataN:  DoStor=T MaxTD1= 9 Len=  602
 Calling FoFJK, ICntrl=      2127 FMM=F ISym2X=0 I1Cent= 0 IOpClX= 0 NMat=1 NMatS=1 NMatT=0.
 CoulSu:  requested number of processors reduced to:  10 ShMem   1 Linda.
 Defaulting to unpruned grid for atomic number  40.
 Defaulting to unpruned grid for atomic number  40.
 Defaulting to unpruned grid for atomic number  40.
 Defaulting to unpruned grid for atomic number  40.
 Defaulting to unpruned grid for atomic number  40.
 Defaulting to unpruned grid for atomic number  40.
 Defaulting to unpruned grid for atomic number  40.
 Defaulting to unpruned grid for atomic number  40.
 Defaulting to unpruned grid for atomic number  40.
 Defaulting to unpruned grid for atomic number  40.
 Defaulting to unpruned grid for atomic number  40.
 Defaulting to unpruned grid for atomic number  40.
 Defaulting to unpruned grid for atomic number  40.
 Defaulting to unpruned grid for atomic number  40.
 Defaulting to unpruned grid for atomic number  40.
 Defaulting to unpruned grid for atomic number  40.
 ***** Axes restored to original set *****
 -------------------------------------------------------------------
 Center     Atomic                   Forces (Hartrees/Bohr)
 Number     Number              X              Y              Z
 -------------------------------------------------------------------
      1       40          -0.000175792   -0.000124833    0.000082661
      2       14           0.000031539   -0.000040994    0.000021151
      3        8           0.000127692    0.000170773   -0.000040022
      4        8           0.000005072   -0.000015750   -0.000015835
      5        8          -0.000024358   -0.000003218    0.000012642
      6        8          -0.000004798   -0.000000600    0.000002545
      7        1           0.000006488   -0.000010797   -0.000007892
      8        1           0.000002719   -0.000001387   -0.000003300
      9        1          -0.000000650   -0.000010852    0.000005909
     10        8           0.000001799   -0.000016843   -0.000012026
     11        1           0.000004758    0.000000967   -0.000000513
     12        8           0.000027239    0.000000938   -0.000024248
     13        1          -0.000008938   -0.000000865    0.000005795
     14        8           0.000000772    0.000052664   -0.000028058
     15        1           0.000006460    0.000000797    0.000001191
 -------------------------------------------------------------------
 Cartesian Forces:  Max     0.000175792 RMS     0.000049605

 GradGradGradGradGradGradGradGradGradGradGradGradGradGradGradGradGradGrad
 Berny optimization.
 Using GEDIIS/GDIIS optimizer.
 FormGI is forming the generalized inverse of G from B-inverse, IUseBI=4.
 Internal  Forces:  Max     0.000184942 RMS     0.000039221
 Search for a local minimum.
 Step number   3 out of a maximum of   62
 All quantities printed in internal units (Hartrees-Bohrs-Radians)
 Mixed Optimization -- En-DIIS/RFO-DIIS
 Swapping is turned off.
 Update second derivatives using D2CorX and points    1    2    3
 DE= -7.95D-08 DEPred=-3.87D-07 R= 2.05D-01
 Trust test= 2.05D-01 RLast= 2.39D-02 DXMaxT set to 3.00D-01
 ITU=  0  0  0
     Eigenvalues ---    0.00037   0.01531   0.01596   0.01597   0.01598
     Eigenvalues ---    0.01599   0.01675   0.03449   0.03607   0.03625
     Eigenvalues ---    0.03891   0.11794   0.12034   0.12709   0.15378
     Eigenvalues ---    0.15884   0.16000   0.16002   0.16057   0.20128
     Eigenvalues ---    0.21249   0.21381   0.21638   0.23005   0.24394
     Eigenvalues ---    0.24794   0.25000   0.35629   0.41239   0.41964
     Eigenvalues ---    0.44377   0.52295   0.54670   0.54723   0.54783
     Eigenvalues ---    0.56112   0.56127   0.561641000.000001000.00000
     Eigenvalues --- 1000.000001000.000001000.000001000.000001000.00000
     Eigenvalues --- 1000.000001000.000001000.000001000.000001000.00000
     Eigenvalues --- 1000.000001000.00000
 En-DIIS/RFO-DIIS/Sim-DIIS IScMMF=       -3 using points:     3    2    1
 RFO step:  Lambda=-1.45880578D-06.
 DIIS inversion failure, remove point   3.
 RFO-DIIS uses    2 points instead of    3
 DidBck=F Rises=F RFO-DIIS coefs:    3.00000   -2.00000    0.00000
 Iteration  1 RMS(Cart)=  0.03373408 RMS(Int)=  0.00020801
 Iteration  2 RMS(Cart)=  0.00033362 RMS(Int)=  0.00000011
 Iteration  3 RMS(Cart)=  0.00000002 RMS(Int)=  0.00000011
 Iteration  1 RMS(Cart)=  0.00000010 RMS(Int)=  0.00000004
 Variable       Old X    -DE/DX   Delta X   Delta X   Delta X     New X
                                 (Linear)    (Quad)   (Total)
    R1        3.72917  -0.00015   0.00089  -0.00045   0.00044   3.72961
    R2        3.65948   0.00002  -0.00016   0.00041   0.00024   3.65972
    R3        3.66063  -0.00001  -0.00055   0.00022  -0.00033   3.66030
    R4        3.64615   0.00006  -0.00042   0.00054   0.00012   3.64626
    R5        3.07658  -0.00003  -0.00001  -0.00007  -0.00008   3.07651
    R6        3.12448  -0.00003   0.00049  -0.00018   0.00030   3.12479
    R7        3.14010   0.00002  -0.00025   0.00011  -0.00014   3.13996
    R8        3.12683   0.00000   0.00011  -0.00002   0.00008   3.12691
    R9        1.82097  -0.00000  -0.00001  -0.00001  -0.00002   1.82095
   R10        1.82077   0.00000  -0.00001   0.00001  -0.00000   1.82077
   R11        1.82131   0.00000   0.00000   0.00000   0.00001   1.82131
   R12        1.80834   0.00000  -0.00000   0.00000  -0.00000   1.80834
   R13        1.80858   0.00000   0.00001  -0.00000   0.00000   1.80858
   R14        1.80857   0.00000   0.00002  -0.00001   0.00001   1.80858
    A1        1.88787  -0.00001  -0.00052  -0.00010  -0.00062   1.88725
    A2        1.88428   0.00005   0.00067   0.00028   0.00095   1.88522
    A3        1.91574  -0.00001  -0.00056  -0.00005  -0.00061   1.91513
    A4        1.92412  -0.00002   0.00020  -0.00014   0.00006   1.92418
    A5        1.92208  -0.00001  -0.00001  -0.00005  -0.00006   1.92203
    A6        1.92891  -0.00000   0.00021   0.00006   0.00027   1.92918
    A7        0.18180  -0.00010  -0.00000   0.00000  -0.00000   0.18180
    A8        1.85626  -0.00000  -0.00029  -0.00001  -0.00030   1.85597
    A9        1.91686   0.00000   0.00009   0.00002   0.00011   1.91697
   A10        2.00470   0.00000   0.00035  -0.00005   0.00030   2.00500
   A11        1.98586  -0.00000   0.00015   0.00001   0.00015   1.98601
   A12        1.86842   0.00000  -0.00043   0.00009  -0.00033   1.86808
   A13        1.83513  -0.00001   0.00014  -0.00006   0.00008   1.83521
   A14        2.81007   0.00018   0.00004  -0.00001   0.00002   2.81009
   A15        2.02461  -0.00001   0.00034  -0.00015   0.00019   2.02480
   A16        2.02672   0.00000  -0.00021   0.00007  -0.00014   2.02658
   A17        2.01601   0.00000  -0.00001   0.00002   0.00001   2.01602
   A18        3.26902   0.00001   0.00141   0.00078   0.00219   3.27121
   A19        3.32566  -0.00002  -0.00174  -0.00226  -0.00400   3.32166
   A20        3.06106   0.00001  -0.00027   0.00123   0.00096   3.06202
   A21        3.01675  -0.00000   0.00069  -0.00007   0.00062   3.01736
   A22        3.20727   0.00001   0.00035   0.00066   0.00101   3.20828
   A23        3.12368  -0.00000  -0.00337  -0.00015  -0.00352   3.12016
    D1       -2.40266  -0.00001  -0.02707  -0.00713  -0.03421  -2.43686
    D2        1.79856  -0.00000  -0.02740  -0.00706  -0.03446   1.76410
    D3       -0.30510  -0.00003  -0.02773  -0.00728  -0.03501  -0.34011
    D4       -0.52293  -0.00001  -0.00106  -0.00032  -0.00138  -0.52431
    D5       -2.67916  -0.00001  -0.00111  -0.00033  -0.00144  -2.68061
    D6        1.54035  -0.00001  -0.00159  -0.00023  -0.00182   1.53852
    D7        2.89626   0.00000   0.00062   0.00016   0.00078   2.89704
    D8       -1.27439   0.00001   0.00062   0.00019   0.00081  -1.27358
    D9        0.74511   0.00000   0.00060   0.00018   0.00078   0.74589
   D10        0.61563  -0.00001  -0.00121  -0.00027  -0.00148   0.61415
   D11       -1.46269  -0.00001  -0.00099  -0.00028  -0.00128  -1.46397
   D12        2.78152  -0.00001  -0.00064  -0.00036  -0.00100   2.78052
   D13        1.54678  -0.00000  -0.00005  -0.00012  -0.00017   1.54661
   D14       -2.67998  -0.00000  -0.00050  -0.00009  -0.00059  -2.68057
   D15       -0.56235  -0.00000  -0.00047  -0.00007  -0.00054  -0.56288
         Item               Value     Threshold  Converged?
 Maximum Force            0.000145     0.000450     YES
 RMS     Force            0.000026     0.000300     YES
 Maximum Displacement     0.086390     0.001800     NO 
 RMS     Displacement     0.033750     0.001200     NO 
 Predicted change in Energy=-7.295905D-07
 GradGradGradGradGradGradGradGradGradGradGradGradGradGradGradGradGradGrad

                          Input orientation:                          
 ---------------------------------------------------------------------
 Center     Atomic      Atomic             Coordinates (Angstroms)
 Number     Number       Type             X           Y           Z
 ---------------------------------------------------------------------
      1         40           0        1.379307   -0.013260   -0.015425
      2         14           0       -2.173053    0.028384    0.015329
      3          8           0       -0.575441   -0.284673    0.006548
      4          8           0       -2.358547    1.479251    0.786602
      5          8           0       -2.989145   -1.224813    0.739475
      6          8           0       -2.860144    0.184033   -1.481894
      7          1           0       -2.538521   -1.656298    1.473715
      8          1           0       -3.181062   -0.633728   -1.878358
      9          1           0       -3.218992    1.902175    0.690130
     10          8           0        2.158706   -1.339356   -1.192108
     11          1           0        2.669899   -1.892721   -1.782180
     12          8           0        2.037351   -0.250295    1.790829
     13          1           0        2.493542   -0.252925    2.632163
     14          8           0        1.783308    1.761616   -0.655460
     15          1           0        1.918241    2.666330   -0.936963
 ---------------------------------------------------------------------
                    Distance matrix (angstroms):
                    1          2          3          4          5
     1  Zr   0.000000
     2  Si   3.552737   0.000000
     3  O    1.973623   1.628019   0.000000
     4  O    4.103947   1.653567   2.626666   0.000000
     5  O    4.595770   1.661594   2.692027   2.777019   0.000000
     6  O    4.490256   1.654690   2.766769   2.659936   2.633623
     7  H    4.501832   2.258010   2.808491   3.214993   0.963509
     8  H    4.965124   2.245112   3.234806   3.499031   2.690588
     9  H    5.031009   2.249541   3.498278   0.963607   3.135812
    10  O    1.936641   4.700293   3.166180   5.680265   5.499501
    11  H    2.884341   5.511430   4.039505   6.576785   6.231342
    12  O    1.936946   4.577943   3.164099   4.829463   5.226920
    13  H    2.882479   5.357617   4.039000   5.472595   5.881045
    14  O    1.929520   4.371137   3.192060   4.394796   5.800078
    15  H    2.884421   4.960272   3.977069   4.761381   6.483353
                    6          7          8          9         10
     6  O    0.000000
     7  H    3.496553   0.000000
     8  H    0.963797   3.562991   0.000000
     9  H    2.792575   3.706721   3.609623   0.000000
    10  O    5.252956   5.410270   5.429730   6.555149   0.000000
    11  H    5.914765   6.146901   5.985654   7.429171   0.956930
    12  O    5.906337   4.797501   6.390758   5.785655   3.177845
    13  H    6.765970   5.350993   7.258853   6.406949   3.989674
    14  O    4.973270   5.907092   5.646071   5.182024   3.169376
    15  H    5.412182   6.660271   6.146502   5.442658   4.021000
[...]
 ! A18   L(1,10,11,8,-1)       188.0748         -DE/DX =    0.0                 !
 ! A19   L(1,12,13,7,-1)       189.4756         -DE/DX =    0.0                 !
 ! A20   L(1,14,15,4,-1)       176.1852         -DE/DX =    0.0                 !
 ! A21   L(1,10,11,8,-2)       173.3764         -DE/DX =    0.0                 !
 ! A22   L(1,12,13,7,-2)       185.2154         -DE/DX =    0.0                 !
 ! A23   L(1,14,15,4,-2)       179.3126         -DE/DX =    0.0                 !
 ! D1    D(10,1,3,2)          -142.4445         -DE/DX =    0.0                 !
 ! D2    D(12,1,3,2)            98.3244         -DE/DX =    0.0                 !
 ! D3    D(14,1,3,2)           -22.2782         -DE/DX =    0.0                 !
 ! D4    D(4,2,3,1)            -30.0482         -DE/DX =    0.0                 !
 ! D5    D(5,2,3,1)           -153.5925         -DE/DX =    0.0                 !
 ! D6    D(6,2,3,1)             88.1648         -DE/DX =    0.0                 !
 ! D7    D(3,2,4,9)            166.0626         -DE/DX =    0.0                 !
 ! D8    D(5,2,4,9)            -72.8881         -DE/DX =    0.0                 !
 ! D9    D(6,2,4,9)             42.8125         -DE/DX =    0.0                 !
 ! D10   D(3,2,5,7)             35.095          -DE/DX =    0.0                 !
 ! D11   D(4,2,5,7)            -83.9722         -DE/DX =    0.0                 !
 ! D12   D(6,2,5,7)            159.2022         -DE/DX =    0.0                 !
 ! D13   D(3,2,6,8)             88.6953         -DE/DX =    0.0                 !
 ! D14   D(4,2,6,8)           -153.4993         -DE/DX =    0.0                 !
 ! D15   D(5,2,6,8)            -32.167          -DE/DX =    0.0                 !
 --------------------------------------------------------------------------------
 GradGradGradGradGradGradGradGradGradGradGradGradGradGradGradGradGradGrad

                          Input orientation:                          
 ---------------------------------------------------------------------
 Center     Atomic      Atomic             Coordinates (Angstroms)
 Number     Number       Type             X           Y           Z
 ---------------------------------------------------------------------
      1         40           0        1.379077   -0.012564   -0.020909
      2         14           0       -2.172637    0.028621    0.019188
      3          8           0       -0.575143   -0.284240   -0.003161
      4          8           0       -2.355942    1.454008    0.836733
      5          8           0       -2.987739   -1.246832    0.704832
      6          8           0       -2.862845    0.231503   -1.470892
      7          1           0       -2.535393   -1.702735    1.423066
      8          1           0       -3.185834   -0.573223   -1.891608
      9          1           0       -3.216831    1.879456    0.756703
     10          8           0        2.161652   -1.359344   -1.172012
     11          1           0        2.682751   -1.927735   -1.738682
     12          8           0        2.033601   -0.220011    1.789862
     13          1           0        2.468508   -0.192753    2.641940
     14          8           0        1.783730    1.752152   -0.688485
     15          1           0        1.928494    2.647417   -0.994174
 ---------------------------------------------------------------------
                    Distance matrix (angstroms):
                    1          2          3          4          5
     1  Zr   0.000000
     2  Si   3.552180   0.000000
     3  O    1.973094   1.627996   0.000000
     4  O    4.103262   1.653393   2.626438   0.000000
     5  O    4.595564   1.661710   2.692296   2.776888   0.000000
     6  O    4.489535   1.654656   2.766551   2.660189   2.633411
     7  H    4.501646   2.258331   2.808707   3.215746   0.963495
     8  H    4.965106   2.244978   3.235035   3.498890   2.689701
     9  H    5.030586   2.249413   3.498212   0.963608   3.135100
    10  O    1.936822   4.704409   3.164192   5.688468   5.481919
    11  H    2.884127   5.521978   4.040667   6.592222   6.211993
    12  O    1.936576   4.570508   3.166165   4.793630   5.238846
    13  H    2.882723   5.335547   4.033452   5.407949   5.885074
    14  O    1.929669   4.373122   3.190743   4.421772   5.805356
    15  H    2.885239   4.970339   3.980567   4.809661   6.497780
                    6          7          8          9         10
     6  O    0.000000
     7  H    3.496212   0.000000
     8  H    0.963799   3.561732   0.000000
     9  H    2.793427   3.706817   3.609730   0.000000
    10  O    5.278796   5.377228   5.452652   6.567941   0.000000
    11  H    5.957152   6.105432   6.024814   7.451625   0.956937
    12  O    5.900132   4.817543   6.396912   5.748236   3.176031
    13  H    6.746755   5.367004   7.257369   6.338079   4.000166
    14  O    4.951281   5.920280   5.617067   5.206763   3.171439
    15  H    5.387098   6.685294   6.110177   5.489053   4.017477
                   11         12         13         14         15
    11  H    0.000000
    12  O    3.973454   0.000000
    13  H    4.716557   0.957039   0.000000
    14  O    3.930995   3.177116   3.917053   0.000000
    15  H    4.696298   3.998006   4.645375   0.957028   0.000000
 Stoichiometry    H6O7SiZr
 Framework group  C1[X(H6O7SiZr)]
 Deg. of freedom    39
 Full point group                 C1      NOp   1
 Largest Abelian subgroup         C1      NOp   1
 Largest concise Abelian subgroup C1      NOp   1
                         Standard orientation:                         
 ---------------------------------------------------------------------
 Center     Atomic      Atomic             Coordinates (Angstroms)
 Number     Number       Type             X           Y           Z
 ---------------------------------------------------------------------
      1         40           0        1.375498   -0.015453   -0.010263
      2         14           0       -2.176578   -0.025965    0.014809
      3          8           0       -0.574469   -0.315074    0.020650
      4          8           0       -2.384975    1.452117    0.725831
      5          8           0       -2.975432   -1.260541    0.788719
      6          8           0       -2.863104    0.057410   -1.488393
      7          1           0       -2.519482   -1.656014    1.539741
      8          1           0       -3.172057   -0.780641   -1.850510
      9          1           0       -3.251807    1.857359    0.612161
     10          8           0        2.183396   -1.430206   -1.057667
     11          1           0        2.715521   -2.030236   -1.579716
     12          8           0        2.024982   -0.080609    1.812989
     13          1           0        2.455622    0.015208    2.662279
     14          8           0        1.756505    1.702047   -0.803138
     15          1           0        1.889133    2.574829   -1.172683
 ---------------------------------------------------------------------
 Rotational constants (GHZ):           1.6326169           0.4776957           0.4750839

 **********************************************************************

            Population analysis using the SCF Density.

 **********************************************************************

 Orbital symmetries:
       Occupied  (A) (A) (A) (A) (A) (A) (A) (A) (A) (A) (A) (A)
                 (A) (A) (A) (A) (A) (A) (A) (A) (A) (A) (A) (A)
                 (A) (A) (A) (A) (A) (A) (A) (A) (A) (A) (A) (A)
                 (A) (A) (A) (A) (A) (A) (A) (A)
       Virtual   (A) (A) (A) (A) (A) (A) (A) (A) (A) (A) (A) (A)
                 (A) (A) (A) (A) (A) (A) (A) (A) (A) (A) (A) (A)
                 (A) (A) (A) (A) (A) (A) (A) (A) (A) (A) (A) (A)
                 (A) (A) (A) (A) (A) (A) (A) (A) (A) (A) (A) (A)
                 (A) (A) (A) (A) (A) (A) (A) (A) (A) (A) (A) (A)
                 (A) (A) (A) (A) (A) (A) (A) (A) (A) (A) (A) (A)
                 (A) (A) (A) (A) (A) (A) (A) (A) (A) (A) (A) (A)
                 (A) (A) (A) (A) (A) (A) (A) (A) (A) (A) (A) (A)
                 (A) (A) (A) (A) (A) (A) (A) (A) (A) (A) (A) (A)
                 (A) (A) (A) (A) (A) (A) (A) (A) (A) (A) (A) (A)
                 (A) (A) (A) (A) (A) (A) (A) (A) (A) (A) (A) (A)
                 (A) (A) (A) (A) (A) (A) (A) (A) (A) (A) (A) (A)
                 (A) (A) (A) (A) (A) (A) (A) (A) (A) (A) (A) (A)
                 (A) (A) (A) (A) (A) (A) (A) (A) (A) (A) (A) (A)
                 (A) (A) (A) (A) (A) (A) (A) (A) (A) (A) (A) (A)
                 (A) (A) (A) (A) (A) (A) (A) (A) (A) (A) (A) (A)
                 (A) (A) (A) (A) (A) (A) (A) (A) (A) (A) (A) (A)
                 (A) (A) (A) (A) (A) (A) (A) (A) (A) (A) (A) (A)
                 (A) (A) (A) (A) (A) (A)
 The electronic state is 1-A.
 Alpha  occ. eigenvalues --  -66.19945 -19.15202 -19.15154 -19.14934 -19.14394
 Alpha  occ. eigenvalues --  -19.14284 -19.14193 -19.13202  -5.34043  -3.70008
 Alpha  occ. eigenvalues --   -3.70002  -3.69964  -2.11211  -1.27523  -1.27413
 Alpha  occ. eigenvalues --   -1.27100  -1.02794  -0.99614  -0.99424  -0.96620
 Alpha  occ. eigenvalues --   -0.95420  -0.95347  -0.94111  -0.57465  -0.52282
 Alpha  occ. eigenvalues --   -0.51584  -0.50357  -0.49655  -0.49621  -0.45630
 Alpha  occ. eigenvalues --   -0.39584  -0.37759  -0.37269  -0.36041  -0.35630
 Alpha  occ. eigenvalues --   -0.34691  -0.34227  -0.33909  -0.32932  -0.32745
 Alpha  occ. eigenvalues --   -0.32057  -0.31284  -0.31199  -0.30684
 Alpha virt. eigenvalues --   -0.02913  -0.01295  -0.00694  -0.00546   0.00301
 Alpha virt. eigenvalues --    0.00397   0.00996   0.01214   0.01768   0.02403
 Alpha virt. eigenvalues --    0.02449   0.02966   0.03153   0.03285   0.03365
 Alpha virt. eigenvalues --    0.04266   0.04538   0.04612   0.05357   0.05753
 Alpha virt. eigenvalues --    0.06763   0.09115   0.09588   0.09840   0.10041
 Alpha virt. eigenvalues --    0.10199   0.11318   0.12483   0.13314   0.13829
 Alpha virt. eigenvalues --    0.14670   0.15570   0.16055   0.16326   0.18037
 Alpha virt. eigenvalues --    0.18210   0.18358   0.19088   0.19556   0.19768
 Alpha virt. eigenvalues --    0.20107   0.20278   0.21353   0.21808   0.22324
 Alpha virt. eigenvalues --    0.23647   0.24435   0.25134   0.26262   0.26469
 Alpha virt. eigenvalues --    0.27064   0.27240   0.27888   0.28320   0.28516
 Alpha virt. eigenvalues --    0.29275   0.29378   0.29604   0.29832   0.30746
 Alpha virt. eigenvalues --    0.31280   0.32868   0.34020   0.34724   0.35591
 Alpha virt. eigenvalues --    0.35742   0.36156   0.37122   0.38106   0.39233
 Alpha virt. eigenvalues --    0.41561   0.44177   0.44239   0.46521   0.47761
 Alpha virt. eigenvalues --    0.48359   0.49176   0.50346   0.52195   0.52826
 Alpha virt. eigenvalues --    0.55171   0.57137   0.58125   0.60186   0.60692
 Alpha virt. eigenvalues --    0.61602   0.62374   0.62598   0.64614   0.65438
 Alpha virt. eigenvalues --    0.66827   0.67872   0.69335   0.72640   0.73792
 Alpha virt. eigenvalues --    0.74273   0.76057   0.77505   0.78824   0.81510
 Alpha virt. eigenvalues --    0.85777   0.86032   0.96130   0.97753   0.98696
 Alpha virt. eigenvalues --    1.01747   1.02483   1.04477   1.05769   1.06689
 Alpha virt. eigenvalues --    1.07790   1.18688   1.19919   1.20738   1.21348
 Alpha virt. eigenvalues --    1.21524   1.22743   1.23451   1.24174   1.24227
 Alpha virt. eigenvalues --    1.25536   1.26508   1.27967   1.28566   1.28927
 Alpha virt. eigenvalues --    1.29077   1.30475   1.31176   1.31720   1.32859
 Alpha virt. eigenvalues --    1.33525   1.36738   1.42824   1.43321   1.45783
 Alpha virt. eigenvalues --    1.48692   1.52711   1.57586   1.59537   1.61091
 Alpha virt. eigenvalues --    1.62460   1.63245   1.63469   1.64635   1.67676
 Alpha virt. eigenvalues --    1.69887   1.71276   1.72404   1.73024   1.73109
 Alpha virt. eigenvalues --    1.73866   1.73942   1.75024   1.76620   1.77316
 Alpha virt. eigenvalues --    1.79313   1.80428   1.83104   1.83527   1.84657
 Alpha virt. eigenvalues --    1.86261   1.87611   1.91053   1.91408   1.92375
 Alpha virt. eigenvalues --    1.93024   1.94224   1.95082   1.96063   1.97115
 Alpha virt. eigenvalues --    1.98789   1.99760   2.00342   2.02062   2.07146
 Alpha virt. eigenvalues --    2.08063   2.08782   2.09953   2.13906   2.17789
 Alpha virt. eigenvalues --    2.19709   2.20689   2.21736   2.26217   2.31914
 Alpha virt. eigenvalues --    2.38192   2.41976   2.42441   2.43249   2.45240
 Alpha virt. eigenvalues --    2.50675   2.58414   2.59959   2.62524   2.63422
 Alpha virt. eigenvalues --    2.64927   2.67212   2.68474   2.68642   2.73031
 Alpha virt. eigenvalues --    2.79003   2.80408   2.81228   2.83748   2.87590
 Alpha virt. eigenvalues --    2.90288   2.91400   2.91724   2.92779   2.94029
 Alpha virt. eigenvalues --    3.00942   3.15636   3.46775   3.48451   3.50995
 Alpha virt. eigenvalues --    3.55105   3.58495   3.82852   4.13654   4.14749
 Alpha virt. eigenvalues --    4.18845  30.98913
          Condensed to atoms (all electrons):
               1          2          3          4          5          6
     1  Zr  10.447430   0.146152  -0.032740   0.006171  -0.081230  -0.041338
     2  Si   0.146152  12.935021  -0.708678  -0.071355  -0.145429   0.010169
     3  O   -0.032740  -0.708678   8.960677   0.107564   0.290328   0.099607
     4  O    0.006171  -0.071355   0.107564   8.567372  -0.030006   0.030193
     5  O   -0.081230  -0.145429   0.290328  -0.030006   8.538357   0.022523
     6  O   -0.041338   0.010169   0.099607   0.030193   0.022523   8.521726
     7  H   -0.003781   0.028655  -0.001723  -0.006465   0.242039   0.006503
     8  H    0.001485   0.060056  -0.021461   0.006389  -0.005326   0.233323
     9  H   -0.004906   0.036224   0.010584   0.224325  -0.005608  -0.005540
    10  O    0.029289  -0.011199  -0.025208   0.000558   0.001139   0.000749
    11  H   -0.087269   0.000657  -0.001134   0.000002   0.000002   0.000003
    12  O    0.033410  -0.012632  -0.027422   0.000224   0.001577   0.000238
    13  H   -0.086836   0.000768  -0.000782   0.000005   0.000002   0.000001
    14  O    0.022468  -0.015614  -0.026175   0.002151   0.000998  -0.000713
    15  H   -0.090421   0.001058  -0.000519   0.000071   0.000003   0.000015
               7          8          9         10         11         12
     1  Zr  -0.003781   0.001485  -0.004906   0.029289  -0.087269   0.033410
     2  Si   0.028655   0.060056   0.036224  -0.011199   0.000657  -0.012632
     3  O   -0.001723  -0.021461   0.010584  -0.025208  -0.001134  -0.027422
     4  O   -0.006465   0.006389   0.224325   0.000558   0.000002   0.000224
     5  O    0.242039  -0.005326  -0.005608   0.001139   0.000002   0.001577
     6  O    0.006503   0.233323  -0.005540   0.000749   0.000003   0.000238
     7  H    0.370609   0.000056   0.000092   0.000015  -0.000000  -0.000042
     8  H    0.000056   0.358638   0.000062  -0.000015   0.000000  -0.000007
     9  H    0.000092   0.000062   0.368739  -0.000001  -0.000000  -0.000017
    10  O    0.000015  -0.000015  -0.000001   8.609002   0.327175  -0.031602
    11  H   -0.000000   0.000000  -0.000000   0.327175   0.382369  -0.000859
    12  O   -0.000042  -0.000007  -0.000017  -0.031602  -0.000859   8.604237
    13  H   -0.000000  -0.000000  -0.000000  -0.000668  -0.000007   0.326388
    14  O   -0.000003   0.000018  -0.000055  -0.035240  -0.001321  -0.037075
    15  H    0.000000  -0.000000  -0.000000  -0.000720  -0.000008  -0.000976
              13         14         15
     1  Zr  -0.086836   0.022468  -0.090421
     2  Si   0.000768  -0.015614   0.001058
     3  O   -0.000782  -0.026175  -0.000519
     4  O    0.000005   0.002151   0.000071
     5  O    0.000002   0.000998   0.000003
     6  O    0.000001  -0.000713   0.000015
     7  H   -0.000000  -0.000003   0.000000
     8  H   -0.000000   0.000018  -0.000000
     9  H   -0.000000  -0.000055  -0.000000
    10  O   -0.000668  -0.035240  -0.000720
    11  H   -0.000007  -0.001321  -0.000008
    12  O    0.326388  -0.037075  -0.000976
    13  H    0.382093  -0.001549  -0.000011
    14  O   -0.001549   8.612161   0.331373
    15  H   -0.000011   0.331373   0.379224
 Mulliken charges:
               1
     1  Zr   1.742114
     2  Si   1.746147
     3  O   -0.622918
     4  O   -0.837200
     5  O   -0.829369
     6  O   -0.877459
     7  H    0.364044
     8  H    0.366780
     9  H    0.376101
    10  O   -0.863272
    11  H    0.380390
    12  O   -0.855443
    13  H    0.380598
    14  O   -0.851424
    15  H    0.380911
 Sum of Mulliken charges =  -0.00000
 Mulliken charges with hydrogens summed into heavy atoms:
               1
     1  Zr   1.742114
     2  Si   1.746147
     3  O   -0.622918
     4  O   -0.461098
     5  O   -0.465325
     6  O   -0.510680
    10  O   -0.482882
    12  O   -0.474846
    14  O   -0.470513
 Electronic spatial extent (au):  <R**2>=           2242.1787
 Charge=              0.0000 electrons
 Dipole moment (field-independent basis, Debye):
    X=              1.8002    Y=             -0.5191    Z=              0.2981  Tot=              1.8972
 Quadrupole moment (field-independent basis, Debye-Ang):
   XX=            -69.0089   YY=            -68.0667   ZZ=            -68.0242
   XY=             -0.3131   XZ=             -0.0624   YZ=              0.6103
 Traceless Quadrupole moment (field-independent basis, Debye-Ang):
   XX=             -0.6423   YY=              0.2999   ZZ=              0.3424
   XY=             -0.3131   XZ=             -0.0624   YZ=              0.6103
 Octapole moment (field-independent basis, Debye-Ang**2):
  XXX=             50.9806  YYY=             10.6733  ZZZ=             15.5586  XYY=             20.1329
  XXY=              7.8855  XXZ=             -2.4103  XZZ=             27.5926  YZZ=            -14.0057
  YYZ=            -12.9713  XYZ=             -2.5529
 Hexadecapole moment (field-independent basis, Debye-Ang**3):
 XXXX=          -1897.1166 YYYY=           -357.1414 ZZZZ=           -350.2339 XXXY=           -101.1422
 XXXZ=             19.2082 YYYX=             -2.8160 YYYZ=            -20.1594 ZZZX=             36.7634
 ZZZY=              7.7813 XXYY=           -327.7583 XXZZ=           -326.4636 YYZZ=           -109.7889
 XXYZ=             57.9099 YYXZ=            -41.2569 ZZXY=             29.4950
 N-N= 6.324768534192D+02 E-N=-3.302505255452D+03  KE= 8.306840990414D+02
 1\1\GINC-GRA1205\FOpt\RB3LYP\Gen\H6O7Si1Zr1\SARASHS\15-Jul-2020\0\\#n 
 B3LYP/Gen Pseudo=cards EmpiricalDispersion=GD3 Opt=modredundant\\Title
 \\0,1\Zr,1.379077411,-0.0125640162,-0.0209086049\Si,-2.1726372823,0.02
 86213042,0.0191877744\O,-0.5751428371,-0.2842396925,-0.0031608377\O,-2
 .3559422996,1.4540084061,0.8367330486\O,-2.9877390208,-1.2468323771,0.
 7048323992\O,-2.8628445331,0.2315030332,-1.470892269\H,-2.5353930331,-
 1.7027354297,1.4230656199\H,-3.1858342161,-0.5732234496,-1.8916079654\
 H,-3.2168307851,1.8794562394,0.756702592\O,2.1616520832,-1.3593437529,
 -1.1720121791\H,2.6827514324,-1.9277348827,-1.7386821693\O,2.033601186
 8,-0.2200113508,1.7898617429\H,2.4685079871,-0.1927530253,2.6419400375
 \O,1.7837300115,1.7521516929,-0.6884852585\H,1.9284938952,2.6474173008
 ,-0.9941739304\\Version=ES64L-G16RevB.01\State=1-A\HF=-867.1278481\RMS
 D=2.208e-09\RMSF=1.259e-05\Dipole=0.7054437,-0.2228516,0.0989771\Quadr
 upole=-0.4847458,0.1639815,0.3207644,-0.2170972,-0.0528497,0.4485404\P
 G=C01 [X(H6O7Si1Zr1)]\\@


 LAWS OF PROGRAMMING DEFINITION:  A WORKING PROGRAM
                                  IS ONE THAT HAS
                                  ONLY UNOBSERVED
                                  BUGS.
 Job cpu time:       0 days  2 hours 11 minutes 24.1 seconds.
 Elapsed time:       0 days  0 hours  9 minutes 38.3 seconds.
 File lengths (MBytes):  RWF=     48 Int=      0 D2E=      0 Chk=      6 Scr=      1
 Normal termination of Gaussian 16 at Wed Jul 15 14:45:21 2020.
