 Entering Gaussian System, Link 0=g16
 Initial command:
 /opt/software/gaussian/g16.b01/l1.exe "/localscratch/sarashs.35250434.0/Gau-19433.inp" -scrdir="/localscratch/sarashs.35250434.0/"
 Entering Link 1 = /opt/software/gaussian/g16.b01/l1.exe PID=     19434.
  
 Copyright (c) 1988-2017, Gaussian, Inc.  All Rights Reserved.
  
 This is part of the Gaussian(R) 16 program.  It is based on
 the Gaussian(R) 09 system (copyright 2009, Gaussian, Inc.),
 the Gaussian(R) 03 system (copyright 2003, Gaussian, Inc.),
 the Gaussian(R) 98 system (copyright 1998, Gaussian, Inc.),
 the Gaussian(R) 94 system (copyright 1995, Gaussian, Inc.),
 the Gaussian 92(TM) system (copyright 1992, Gaussian, Inc.),
 the Gaussian 90(TM) system (copyright 1990, Gaussian, Inc.),
 the Gaussian 88(TM) system (copyright 1988, Gaussian, Inc.),
 the Gaussian 86(TM) system (copyright 1986, Carnegie Mellon
 University), and the Gaussian 82(TM) system (copyright 1983,
 Carnegie Mellon University). Gaussian is a federally registered
 trademark of Gaussian, Inc.
  
 This software contains proprietary and confidential information,
 including trade secrets, belonging to Gaussian, Inc.
  
 This software is provided under written license and may be
 used, copied, transmitted, or stored only in accord with that
 written license.
  
 The following legend is applicable only to US Government
 contracts under FAR:
  
                    RESTRICTED RIGHTS LEGEND
  
 Use, reproduction and disclosure by the US Government is
 subject to restrictions as set forth in subparagraphs (a)
 and (c) of the Commercial Computer Software - Restricted
 Rights clause in FAR 52.227-19.
  
 Gaussian, Inc.
 340 Quinnipiac St., Bldg. 40, Wallingford CT 06492
  
  
 ---------------------------------------------------------------
 Warning -- This program may not be used in any manner that
 competes with the business of Gaussian, Inc. or will provide
 assistance to any competitor of Gaussian, Inc.  The licensee
 of this program is prohibited from giving any competitor of
 Gaussian, Inc. access to this program.  By using this program,
 the user acknowledges that Gaussian, Inc. is engaged in the
 business of creating and licensing software in the field of
 computational chemistry and represents and warrants to the
 licensee that it is not a competitor of Gaussian, Inc. and that
 it will not use this program in any manner prohibited above.
 ---------------------------------------------------------------
  

 Cite this work as:
 Gaussian 16, Revision B.01,
 M. J. Frisch, G. W. Trucks, H. B. Schlegel, G. E. Scuseria, 
 M. A. Robb, J. R. Cheeseman, G. Scalmani, V. Barone, 
 G. A. Petersson, H. Nakatsuji, X. Li, M. Caricato, A. V. Marenich, 
 J. Bloino, B. G. Janesko, R. Gomperts, B. Mennucci, H. P. Hratchian, 
 J. V. Ortiz, A. F. Izmaylov, J. L. Sonnenberg, D. Williams-Young, 
 F. Ding, F. Lipparini, F. Egidi, J. Goings, B. Peng, A. Petrone, 
 T. Henderson, D. Ranasinghe, V. G. Zakrzewski, J. Gao, N. Rega, 
 G. Zheng, W. Liang, M. Hada, M. Ehara, K. Toyota, R. Fukuda, 
 J. Hasegawa, M. Ishida, T. Nakajima, Y. Honda, O. Kitao, H. Nakai, 
 T. Vreven, K. Throssell, J. A. Montgomery, Jr., J. E. Peralta, 
 F. Ogliaro, M. J. Bearpark, J. J. Heyd, E. N. Brothers, K. N. Kudin, 
 V. N. Staroverov, T. A. Keith, R. Kobayashi, J. Normand, 
 K. Raghavachari, A. P. Rendell, J. C. Burant, S. S. Iyengar, 
 J. Tomasi, M. Cossi, J. M. Millam, M. Klene, C. Adamo, R. Cammi, 
 J. W. Ochterski, R. L. Martin, K. Morokuma, O. Farkas, 
 J. B. Foresman, and D. J. Fox, Gaussian, Inc., Wallingford CT, 2016.
 
 ******************************************
 Gaussian 16:  ES64L-G16RevB.01 20-Dec-2017
                16-Jul-2020 
 ******************************************
 %NProcShared=16
 Will use up to   16 processors via shared memory.
 ------------------------------------------------------------------
 #n B3LYP/Gen Pseudo=cards EmpiricalDispersion=GD3 Opt=modredundant
 ------------------------------------------------------------------
 1/18=120,19=15,26=3,38=1/1,3;
 2/9=110,12=2,17=6,18=5,40=1/2;
 3/5=7,11=2,16=1,17=8,25=1,30=1,71=1,74=-5,124=31/1,2,3;
 4//1;
 5/5=2,38=5/2;
 6/7=2,8=2,9=2,10=2,28=1/1;
 7//1,2,3,16;
 1/18=20,19=15,26=3/3(2);
 2/9=110/2;
 99//99;
 2/9=110/2;
 3/5=7,6=1,11=2,16=1,17=8,25=1,30=1,71=1,74=-5,82=7,124=31/1,2,3;
 4/5=5,16=3,69=1/1;
 5/5=2,38=5/2;
 7//1,2,3,16;
 1/18=20,19=15,26=3/3(-5);
 2/9=110/2;
 6/7=2,8=2,9=2,10=2,19=2,28=1/1;
 99/9=1/99;
 -----
 Title
 -----
 Symbolic Z-matrix:
 Charge =  0 Multiplicity = 1
 Zr                    1.37839  -0.01367  -0.01029 
 Si                   -1.95434   0.57955  -0.01807 
 O                    -0.57498  -0.28442   0.01654 
 O                    -1.61378   2.03013   0.69801 
 O                    -3.16993  -0.26912   0.73274 
 O                    -2.53024   0.90936  -1.53376 
 H                    -2.90911  -0.80208   1.49187 
 H                    -3.12036   0.24512  -1.90719 
 H                    -2.26505   2.72833   0.56795 
 O                     2.15239  -1.31312  -1.2196 
 H                     2.65751  -1.85105  -1.82887 
 O                     2.04402  -0.29207   1.78758 
 H                     2.51011  -0.3161    2.62313 
 O                     1.78195   1.7752   -0.6111 
 H                     1.91399   2.68442  -0.87911 
 
 The following ModRedundant input section has been read:
 A       1       2       3 F                                                   
 

 GradGradGradGradGradGradGradGradGradGradGradGradGradGradGradGradGradGrad
 Berny optimization.
 Initialization pass.
                           ----------------------------
                           !    Initial Parameters    !
                           ! (Angstroms and Degrees)  !
 --------------------------                            --------------------------
 ! Name  Definition              Value          Derivative Info.                !
 --------------------------------------------------------------------------------
 ! R1    R(1,3)                  1.9722         estimate D2E/DX2                !
 ! R2    R(1,10)                 1.9365         estimate D2E/DX2                !
 ! R3    R(1,12)                 1.9372         estimate D2E/DX2                !
 ! R4    R(1,14)                 1.9297         estimate D2E/DX2                !
 ! R5    R(2,3)                  1.628          estimate D2E/DX2                !
 ! R6    R(2,4)                  1.6532         estimate D2E/DX2                !
 ! R7    R(2,5)                  1.6618         estimate D2E/DX2                !
 ! R8    R(2,6)                  1.6546         estimate D2E/DX2                !
 ! R9    R(4,9)                  0.9636         estimate D2E/DX2                !
 ! R10   R(5,7)                  0.9635         estimate D2E/DX2                !
 ! R11   R(6,8)                  0.9638         estimate D2E/DX2                !
 ! R12   R(10,11)                0.9569         estimate D2E/DX2                !
 ! R13   R(12,13)                0.9571         estimate D2E/DX2                !
 ! R14   R(14,15)                0.9571         estimate D2E/DX2                !
 ! A1    A(3,1,10)             108.1944         estimate D2E/DX2                !
 ! A2    A(3,1,12)             107.9362         estimate D2E/DX2                !
 ! A3    A(3,1,14)             109.793          estimate D2E/DX2                !
 ! A4    A(10,1,12)            110.2299         estimate D2E/DX2                !
 ! A5    A(10,1,14)            110.1226         estimate D2E/DX2                !
 ! A6    A(12,1,14)            110.5061         estimate D2E/DX2                !
 ! A7    A(1,2,3)               21.9933         Frozen                          !
 ! A8    A(3,2,4)              106.3746         estimate D2E/DX2                !
 ! A9    A(3,2,5)              109.8251         estimate D2E/DX2                !
 ! A10   A(3,2,6)              114.8449         estimate D2E/DX2                !
 ! A11   A(4,2,5)              113.772          estimate D2E/DX2                !
 ! A12   A(4,2,6)              107.073          estimate D2E/DX2                !
 ! A13   A(5,2,6)              105.1332         estimate D2E/DX2                !
 ! A14   A(1,3,2)              139.9999         estimate D2E/DX2                !
 ! A15   A(2,4,9)              115.9815         estimate D2E/DX2                !
 ! A16   A(2,5,7)              116.1319         estimate D2E/DX2                !
 ! A17   A(2,6,8)              115.5095         estimate D2E/DX2                !
 ! A18   L(1,10,11,8,-1)       186.1046         estimate D2E/DX2                !
 ! A19   L(1,12,13,7,-1)       189.766          estimate D2E/DX2                !
 ! A20   L(1,14,15,4,-1)       175.3723         estimate D2E/DX2                !
 ! A21   L(1,10,11,8,-2)       171.0926         estimate D2E/DX2                !
 ! A22   L(1,12,13,7,-2)       186.0369         estimate D2E/DX2                !
 ! A23   L(1,14,15,4,-2)       179.5695         estimate D2E/DX2                !
 ! D1    D(10,1,3,2)          -136.4116         estimate D2E/DX2                !
 ! D2    D(12,1,3,2)           104.3157         estimate D2E/DX2                !
 ! D3    D(14,1,3,2)           -16.2024         estimate D2E/DX2                !
 ! D4    D(4,2,3,1)            -29.9124         estimate D2E/DX2                !
 ! D5    D(5,2,3,1)           -153.4539         estimate D2E/DX2                !
 ! D6    D(6,2,3,1)             88.3338         estimate D2E/DX2                !
 ! D7    D(3,2,4,9)            165.9161         estimate D2E/DX2                !
 ! D8    D(5,2,4,9)            -73.0408         estimate D2E/DX2                !
 ! D9    D(6,2,4,9)             42.6616         estimate D2E/DX2                !
 ! D10   D(3,2,5,7)             35.329          estimate D2E/DX2                !
 ! D11   D(4,2,5,7)            -83.7658         estimate D2E/DX2                !
 ! D12   D(6,2,5,7)            159.3971         estimate D2E/DX2                !
 ! D13   D(3,2,6,8)             88.6228         estimate D2E/DX2                !
 ! D14   D(4,2,6,8)           -153.5248         estimate D2E/DX2                !
 ! D15   D(5,2,6,8)            -32.2            estimate D2E/DX2                !
 --------------------------------------------------------------------------------
 Trust Radius=3.00D-01 FncErr=1.00D-07 GrdErr=1.00D-06 EigMax=2.50D+02 EigMin=1.00D-04
 Number of steps in this run=     62 maximum allowed number of steps=    100.
 GradGradGradGradGradGradGradGradGradGradGradGradGradGradGradGradGradGrad

                          Input orientation:                          
 ---------------------------------------------------------------------
 Center     Atomic      Atomic             Coordinates (Angstroms)
 Number     Number       Type             X           Y           Z
 ---------------------------------------------------------------------
      1         40           0        1.378390   -0.013670   -0.010290
      2         14           0       -1.954340    0.579550   -0.018070
      3          8           0       -0.574980   -0.284420    0.016540
      4          8           0       -1.613780    2.030130    0.698010
      5          8           0       -3.169930   -0.269120    0.732740
      6          8           0       -2.530240    0.909360   -1.533760
      7          1           0       -2.909110   -0.802080    1.491870
      8          1           0       -3.120360    0.245120   -1.907190
      9          1           0       -2.265050    2.728330    0.567950
     10          8           0        2.152390   -1.313120   -1.219600
     11          1           0        2.657510   -1.851050   -1.828870
     12          8           0        2.044020   -0.292070    1.787580
     13          1           0        2.510110   -0.316100    2.623130
     14          8           0        1.781950    1.775200   -0.611100
     15          1           0        1.913990    2.684420   -0.879110
 ---------------------------------------------------------------------
                    Distance matrix (angstroms):
                    1          2          3          4          5
     1  Zr   0.000000
     2  Si   3.385123   0.000000
     3  O    1.972227   1.627967   0.000000
     4  O    3.692139   1.653159   2.626909   0.000000
     5  O    4.615687   1.661811   2.692014   2.776573   0.000000
     6  O    4.295385   1.654615   2.766149   2.660230   2.633447
     7  H    4.610936   2.258408   2.809401   3.213955   0.963510
     8  H    4.889167   2.245044   3.234209   3.499016   2.690006
     9  H    4.596475   2.248825   3.498150   0.963614   3.135390
    10  O    1.936512   4.678793   3.166198   5.388746   5.764430
    11  H    2.884328   5.518693   4.038423   6.300206   6.559223
    12  O    1.937242   4.472916   3.161614   4.467581   5.319632
    13  H    2.882214   5.263976   4.038947   5.120288   5.986538
    14  O    1.929738   3.967509   3.192348   3.648252   5.523248
    15  H    2.884685   4.487298   3.976326   3.919256   6.096532
                    6          7          8          9         10
     6  O    0.000000
     7  H    3.496714   0.000000
     8  H    0.963798   3.562985   0.000000
     9  H    2.792161   3.705703   3.608906   0.000000
    10  O    5.192797   5.764721   5.541009   6.248394   0.000000
    11  H    5.883851   6.566195   6.146856   7.137721   0.956935
    12  O    5.779151   4.988091   6.372654   5.401703   3.177644
    13  H    6.647301   5.557326   7.248514   6.024489   3.986049
    14  O    4.493992   5.750730   5.296568   4.321669   3.169419
    15  H    4.830174   6.406210   5.687865   4.422701   4.019091
                   11         12         13         14         15
    11  H    0.000000
    12  O    3.985662   0.000000
    13  H    4.711486   0.957059   0.000000
    14  O    3.924189   3.177413   3.919693   0.000000
    15  H    4.693118   3.998454   4.650179   0.957050   0.000000
 Stoichiometry    H6O7SiZr
 Framework group  C1[X(H6O7SiZr)]
 Deg. of freedom    39
 Full point group                 C1      NOp   1
 Largest Abelian subgroup         C1      NOp   1
 Largest concise Abelian subgroup C1      NOp   1
                         Standard orientation:                         
 ---------------------------------------------------------------------
 Center     Atomic      Atomic             Coordinates (Angstroms)
 Number     Number       Type             X           Y           Z
 ---------------------------------------------------------------------
      1         40           0       -1.310540    0.009124   -0.036015
      2         14           0        2.074299    0.049107   -0.054041
      3          8           0        0.558377    0.352540   -0.564122
      4          8           0        2.001436   -0.043407    1.594918
      5          8           0        3.103814    1.227297   -0.614026
      6          8           0        2.716601   -1.377440   -0.592710
      7          1           0        2.741059    2.118433   -0.665372
      8          1           0        3.177046   -1.332293   -1.438204
      9          1           0        2.772156   -0.423531    2.030863
     10          8           0       -2.299859   -0.511188   -1.617344
     11          1           0       -2.889807   -0.839861   -2.295326
     12          8           0       -2.034319    1.649618    0.697354
     13          1           0       -2.505171    2.346804    1.153633
     14          8           0       -1.369317   -1.402636    1.278279
     15          1           0       -1.327763   -2.080293    1.952815
 ---------------------------------------------------------------------
 Rotational constants (GHZ):           1.6658401           0.5113332           0.5101416
 General basis read from cards:  (5D, 7F)
 ======================================================================================================
                                       Pseudopotential Parameters
 ======================================================================================================
  Center     Atomic      Valence      Angular      Power
  Number     Number     Electrons     Momentum     of R      Exponent        Coefficient   SO-Coeffient
 ======================================================================================================
    1         40           12
                                      G and up 
                                                     2        1.0000000        0.00000000    0.00000000
                                      S - G
                                                     2        8.6365280      150.24299400    0.00000000
                                                     2        3.7176390       18.78003600    0.00000000
                                      P - G
                                                     2        7.6267280       33.19279100    0.00000000
                                                     2        7.4532070       66.38903900    0.00000000
                                                     2        3.3583890        4.62072600    0.00000000
                                                     2        3.2297380        9.26027000    0.00000000
                                      D - G
                                                     2        5.9380860       13.99338300    0.00000000
                                                     2        5.8255440       20.99588200    0.00000000
                                                     2        2.2050190        2.28516600    0.00000000
                                                     2        2.2062920        3.44126000    0.00000000
                                      F - G
                                                     2        4.8002150       -5.23932000    0.00000000
                                                     2        4.7989920       -6.98742400    0.00000000
    2         14
                                   No pseudopotential on this center.
    3          8
                                   No pseudopotential on this center.
    4          8
                                   No pseudopotential on this center.
    5          8
                                   No pseudopotential on this center.
    6          8
                                   No pseudopotential on this center.
    7          1
                                   No pseudopotential on this center.
    8          1
                                   No pseudopotential on this center.
    9          1
                                   No pseudopotential on this center.
   10          8
                                   No pseudopotential on this center.
   11          1
                                   No pseudopotential on this center.
   12          8
                                   No pseudopotential on this center.
   13          1
                                   No pseudopotential on this center.
   14          8
                                   No pseudopotential on this center.
   15          1
                                   No pseudopotential on this center.
 ======================================================================================================
 There are   300 symmetry adapted cartesian basis functions of A   symmetry.
 There are   266 symmetry adapted basis functions of A   symmetry.
   266 basis functions,   576 primitive gaussians,   300 cartesian basis functions
    44 alpha electrons       44 beta electrons
       nuclear repulsion energy       641.5235476630 Hartrees.
 NAtoms=   15 NActive=   15 NUniq=   15 SFac= 1.00D+00 NAtFMM=   60 NAOKFM=F Big=F
 Integral buffers will be    131072 words long.
 Raffenetti 2 integral format.
 Two-electron integral symmetry is turned on.
 Nuclear repulsion after empirical dispersion term =      641.5130008952 Hartrees.
 One-electron integrals computed using PRISM.
 PrsmSu:  requested number of processors reduced to:   4 ShMem   1 Linda.
   1 Symmetry operations used in ECPInt.
 ECPInt:  NShTT=    3321 NPrTT=   20810 LenC2=    3189 LenP2D=   15181.
 LDataN:  DoStor=T MaxTD1= 8 Len=  415
 NBasis=   266 RedAO= T EigKep=  1.13D-04  NBF=   266
 NBsUse=   266 1.00D-06 EigRej= -1.00D+00 NBFU=   266
 Defaulting to unpruned grid for atomic number  40.
 ExpMin= 1.01D-02 ExpMax= 1.61D+04 ExpMxC= 2.43D+03 IAcc=3 IRadAn=         5 AccDes= 0.00D+00
 Harris functional with IExCor=  402 and IRadAn=       5 diagonalized for initial guess.
 HarFok:  IExCor=  402 AccDes= 0.00D+00 IRadAn=         5 IDoV= 1 UseB2=F ITyADJ=14
 ICtDFT=  3500011 ScaDFX=  1.000000  1.000000  1.000000  1.000000
 Defaulting to unpruned grid for atomic number  40.
 FoFCou: FMM=F IPFlag=           0 FMFlag=      100000 FMFlg1=           0
         NFxFlg=           0 DoJE=T BraDBF=F KetDBF=T FulRan=T
         wScrn=  0.000000 ICntrl=       500 IOpCl=  0 I1Cent=   200000004 NGrid=           0
         NMat0=    1 NMatS0=      1 NMatT0=    0 NMatD0=    1 NMtDS0=    0 NMtDT0=    0
 Petite list used in FoFCou.
 Requested convergence on RMS density matrix=1.00D-08 within 128 cycles.
 Requested convergence on MAX density matrix=1.00D-06.
 Requested convergence on             energy=1.00D-06.
 No special actions if energy rises.
 Defaulting to unpruned grid for atomic number  40.
 Defaulting to unpruned grid for atomic number  40.
 Defaulting to unpruned grid for atomic number  40.
 Defaulting to unpruned grid for atomic number  40.
 Defaulting to unpruned grid for atomic number  40.
 Defaulting to unpruned grid for atomic number  40.
 Defaulting to unpruned grid for atomic number  40.
 Defaulting to unpruned grid for atomic number  40.
 Defaulting to unpruned grid for atomic number  40.
 Defaulting to unpruned grid for atomic number  40.
 Defaulting to unpruned grid for atomic number  40.
 Defaulting to unpruned grid for atomic number  40.
 Defaulting to unpruned grid for atomic number  40.
 Defaulting to unpruned grid for atomic number  40.
 Defaulting to unpruned grid for atomic number  40.
 Defaulting to unpruned grid for atomic number  40.
 SCF Done:  E(RB3LYP) =  -867.126630219     A.U. after   13 cycles
            NFock= 13  Conv=0.59D-08     -V/T= 2.0438

 **********************************************************************

            Population analysis using the SCF Density.

 **********************************************************************

 Orbital symmetries:
       Occupied  (A) (A) (A) (A) (A) (A) (A) (A) (A) (A) (A) (A)
                 (A) (A) (A) (A) (A) (A) (A) (A) (A) (A) (A) (A)
                 (A) (A) (A) (A) (A) (A) (A) (A) (A) (A) (A) (A)
                 (A) (A) (A) (A) (A) (A) (A) (A)
       Virtual   (A) (A) (A) (A) (A) (A) (A) (A) (A) (A) (A) (A)
                 (A) (A) (A) (A) (A) (A) (A) (A) (A) (A) (A) (A)
                 (A) (A) (A) (A) (A) (A) (A) (A) (A) (A) (A) (A)
                 (A) (A) (A) (A) (A) (A) (A) (A) (A) (A) (A) (A)
                 (A) (A) (A) (A) (A) (A) (A) (A) (A) (A) (A) (A)
                 (A) (A) (A) (A) (A) (A) (A) (A) (A) (A) (A) (A)
                 (A) (A) (A) (A) (A) (A) (A) (A) (A) (A) (A) (A)
                 (A) (A) (A) (A) (A) (A) (A) (A) (A) (A) (A) (A)
                 (A) (A) (A) (A) (A) (A) (A) (A) (A) (A) (A) (A)
                 (A) (A) (A) (A) (A) (A) (A) (A) (A) (A) (A) (A)
                 (A) (A) (A) (A) (A) (A) (A) (A) (A) (A) (A) (A)
                 (A) (A) (A) (A) (A) (A) (A) (A) (A) (A) (A) (A)
                 (A) (A) (A) (A) (A) (A) (A) (A) (A) (A) (A) (A)
                 (A) (A) (A) (A) (A) (A) (A) (A) (A) (A) (A) (A)
                 (A) (A) (A) (A) (A) (A) (A) (A) (A) (A) (A) (A)
                 (A) (A) (A) (A) (A) (A) (A) (A) (A) (A) (A) (A)
                 (A) (A) (A) (A) (A) (A) (A) (A) (A) (A) (A) (A)
                 (A) (A) (A) (A) (A) (A) (A) (A) (A) (A) (A) (A)
                 (A) (A) (A) (A) (A) (A)
 The electronic state is 1-A.
 Alpha  occ. eigenvalues --  -66.20009 -19.15299 -19.15297 -19.15260 -19.14163
 Alpha  occ. eigenvalues --  -19.14040 -19.14019 -19.13343  -5.34142  -3.70105
 Alpha  occ. eigenvalues --   -3.70098  -3.70062  -2.10972  -1.27302  -1.27179
 Alpha  occ. eigenvalues --   -1.26931  -1.02987  -0.99860  -0.99563  -0.96435
 Alpha  occ. eigenvalues --   -0.95188  -0.95149  -0.94275  -0.57592  -0.52494
 Alpha  occ. eigenvalues --   -0.51804  -0.50132  -0.49471  -0.49393  -0.45338
 Alpha  occ. eigenvalues --   -0.39814  -0.37706  -0.37555  -0.36044  -0.35631
 Alpha  occ. eigenvalues --   -0.34765  -0.34324  -0.34053  -0.32778  -0.32643
 Alpha  occ. eigenvalues --   -0.31855  -0.31281  -0.31040  -0.30867
 Alpha virt. eigenvalues --   -0.02863  -0.01248  -0.00584  -0.00488   0.00466
 Alpha virt. eigenvalues --    0.00545   0.01089   0.01194   0.01899   0.02321
 Alpha virt. eigenvalues --    0.02612   0.03108   0.03300   0.03413   0.03520
 Alpha virt. eigenvalues --    0.04219   0.04567   0.04788   0.05492   0.05695
 Alpha virt. eigenvalues --    0.06811   0.09148   0.09690   0.09855   0.10043
 Alpha virt. eigenvalues --    0.10362   0.11730   0.12275   0.12879   0.14051
 Alpha virt. eigenvalues --    0.14627   0.15577   0.16324   0.16974   0.17591
 Alpha virt. eigenvalues --    0.17843   0.18261   0.19289   0.19506   0.19737
 Alpha virt. eigenvalues --    0.20621   0.20936   0.21602   0.22305   0.22807
 Alpha virt. eigenvalues --    0.23941   0.25073   0.25805   0.26469   0.26697
 Alpha virt. eigenvalues --    0.27386   0.27702   0.28107   0.28137   0.28787
 Alpha virt. eigenvalues --    0.29385   0.29800   0.30124   0.30380   0.30750
 Alpha virt. eigenvalues --    0.31660   0.32767   0.34164   0.34770   0.35316
 Alpha virt. eigenvalues --    0.35869   0.36158   0.37689   0.38494   0.40195
 Alpha virt. eigenvalues --    0.42061   0.44089   0.45174   0.47468   0.48043
 Alpha virt. eigenvalues --    0.48862   0.49959   0.50092   0.51927   0.53331
 Alpha virt. eigenvalues --    0.55200   0.56859   0.58056   0.59750   0.60284
 Alpha virt. eigenvalues --    0.61092   0.62933   0.63130   0.66028   0.66613
 Alpha virt. eigenvalues --    0.67453   0.68187   0.71592   0.72333   0.73938
 Alpha virt. eigenvalues --    0.74372   0.75970   0.77977   0.78406   0.80325
 Alpha virt. eigenvalues --    0.84596   0.85750   0.96405   0.97998   0.98405
 Alpha virt. eigenvalues --    1.02018   1.02976   1.04161   1.06585   1.07859
 Alpha virt. eigenvalues --    1.07893   1.18938   1.19821   1.20167   1.20986
 Alpha virt. eigenvalues --    1.21612   1.23083   1.23699   1.23969   1.25220
 Alpha virt. eigenvalues --    1.26463   1.27683   1.28401   1.28788   1.29156
 Alpha virt. eigenvalues --    1.30770   1.31477   1.31810   1.32790   1.32905
 Alpha virt. eigenvalues --    1.35444   1.37277   1.42379   1.43846   1.46817
 Alpha virt. eigenvalues --    1.48942   1.51157   1.54127   1.59803   1.60166
 Alpha virt. eigenvalues --    1.61304   1.63181   1.63856   1.65332   1.66974
 Alpha virt. eigenvalues --    1.69756   1.71565   1.71775   1.72606   1.73640
 Alpha virt. eigenvalues --    1.74739   1.75001   1.76340   1.77430   1.78835
 Alpha virt. eigenvalues --    1.80339   1.81260   1.82255   1.83717   1.84520
 Alpha virt. eigenvalues --    1.86401   1.87683   1.89344   1.91822   1.92222
 Alpha virt. eigenvalues --    1.92672   1.94875   1.96433   1.96829   1.97948
 Alpha virt. eigenvalues --    1.99530   2.01436   2.03592   2.04649   2.07011
 Alpha virt. eigenvalues --    2.07934   2.08378   2.12256   2.13938   2.17866
 Alpha virt. eigenvalues --    2.18647   2.21840   2.26006   2.26974   2.31426
 Alpha virt. eigenvalues --    2.40902   2.42149   2.43179   2.44581   2.46497
 Alpha virt. eigenvalues --    2.50926   2.57883   2.61045   2.62272   2.63385
 Alpha virt. eigenvalues --    2.64939   2.68265   2.68568   2.71424   2.74384
 Alpha virt. eigenvalues --    2.79603   2.80687   2.83049   2.83883   2.87292
 Alpha virt. eigenvalues --    2.89701   2.91612   2.91807   2.93255   2.94720
 Alpha virt. eigenvalues --    2.96447   3.11659   3.46113   3.48794   3.51632
 Alpha virt. eigenvalues --    3.55885   3.63972   3.71248   4.13735   4.15353
 Alpha virt. eigenvalues --    4.18846  30.75193
          Condensed to atoms (all electrons):
               1          2          3          4          5          6
     1  Zr  10.578075   0.024384  -0.019586  -0.007993  -0.088131  -0.017494
     2  Si   0.024384  12.885239  -0.548043  -0.086001  -0.168966   0.027469
     3  O   -0.019586  -0.548043   8.801728   0.096659   0.285722   0.066556
     4  O   -0.007993  -0.086001   0.096659   8.603992  -0.035626   0.049082
     5  O   -0.088131  -0.168966   0.285722  -0.035626   8.586884  -0.010090
     6  O   -0.017494   0.027469   0.066556   0.049082  -0.010090   8.555947
     7  H   -0.006216   0.033604   0.000300  -0.005967   0.236377   0.007042
     8  H    0.002008   0.055037  -0.020301   0.005623  -0.004250   0.234642
     9  H   -0.003333   0.035330   0.009404   0.227364  -0.004570  -0.003873
    10  O    0.010362  -0.003361  -0.023082   0.000605   0.000840   0.000772
    11  H   -0.087928   0.000160  -0.000597  -0.000005   0.000001   0.000001
    12  O    0.019138  -0.008856  -0.023144  -0.000275   0.001303  -0.000044
    13  H   -0.086082   0.000726  -0.000482  -0.000017  -0.000001  -0.000000
    14  O    0.023802   0.004168  -0.026714   0.003427   0.000679  -0.003914
    15  H   -0.088549  -0.000367   0.000308   0.000474   0.000003   0.000148
               7          8          9         10         11         12
     1  Zr  -0.006216   0.002008  -0.003333   0.010362  -0.087928   0.019138
     2  Si   0.033604   0.055037   0.035330  -0.003361   0.000160  -0.008856
     3  O    0.000300  -0.020301   0.009404  -0.023082  -0.000597  -0.023144
     4  O   -0.005967   0.005623   0.227364   0.000605  -0.000005  -0.000275
     5  O    0.236377  -0.004250  -0.004570   0.000840   0.000001   0.001303
     6  O    0.007042   0.234642  -0.003873   0.000772   0.000001  -0.000044
     7  H    0.370595   0.000059   0.000089   0.000003   0.000000  -0.000013
     8  H    0.000059   0.357955   0.000062  -0.000035  -0.000000  -0.000006
     9  H    0.000089   0.000062   0.358138  -0.000006  -0.000000   0.000012
    10  O    0.000003  -0.000035  -0.000006   8.629358   0.330658  -0.035075
    11  H    0.000000  -0.000000  -0.000000   0.330658   0.381329  -0.001107
    12  O   -0.000013  -0.000006   0.000012  -0.035075  -0.001107   8.629709
    13  H   -0.000000  -0.000000  -0.000000  -0.000847  -0.000008   0.326315
    14  O    0.000002   0.000059  -0.000111  -0.039682  -0.001351  -0.038889
    15  H    0.000000  -0.000000  -0.000002  -0.000688  -0.000007  -0.000994
              13         14         15
     1  Zr  -0.086082   0.023802  -0.088549
     2  Si   0.000726   0.004168  -0.000367
     3  O   -0.000482  -0.026714   0.000308
     4  O   -0.000017   0.003427   0.000474
     5  O   -0.000001   0.000679   0.000003
     6  O   -0.000000  -0.003914   0.000148
     7  H   -0.000000   0.000002   0.000000
     8  H   -0.000000   0.000059  -0.000000
     9  H   -0.000000  -0.000111  -0.000002
    10  O   -0.000847  -0.039682  -0.000688
    11  H   -0.000008  -0.001351  -0.000007
    12  O    0.326315  -0.038889  -0.000994
    13  H    0.382444  -0.001530  -0.000011
    14  O   -0.001530   8.604737   0.331177
    15  H   -0.000011   0.331177   0.378390
 Mulliken charges:
               1
     1  Zr   1.747542
     2  Si   1.749477
     3  O   -0.598728
     4  O   -0.851346
     5  O   -0.800174
     6  O   -0.906245
     7  H    0.364124
     8  H    0.369145
     9  H    0.381495
    10  O   -0.869823
    11  H    0.378854
    12  O   -0.868072
    13  H    0.379494
    14  O   -0.855860
    15  H    0.380118
 Sum of Mulliken charges =  -0.00000
 Mulliken charges with hydrogens summed into heavy atoms:
               1
     1  Zr   1.747542
     2  Si   1.749477
     3  O   -0.598728
     4  O   -0.469851
     5  O   -0.436050
     6  O   -0.537101
    10  O   -0.490969
    12  O   -0.488578
    14  O   -0.475742
 Electronic spatial extent (au):  <R**2>=           2124.1635
 Charge=             -0.0000 electrons
 Dipole moment (field-independent basis, Debye):
    X=             -1.2915    Y=              0.2262    Z=              0.1795  Tot=              1.3234
 Quadrupole moment (field-independent basis, Debye-Ang):
   XX=            -69.1021   YY=            -68.3409   ZZ=            -67.4304
   XY=             -0.4450   XZ=              0.7613   YZ=              0.1765
 Traceless Quadrupole moment (field-independent basis, Debye-Ang):
   XX=             -0.8110   YY=             -0.0497   ZZ=              0.8608
   XY=             -0.4450   XZ=              0.7613   YZ=              0.1765
 Octapole moment (field-independent basis, Debye-Ang**2):
  XXX=            -57.9711  YYY=             19.9584  ZZZ=             -2.5215  XYY=            -21.6769
  XXY=             -5.8004  XXZ=             -1.0087  XZZ=            -13.1689  YZZ=            -17.3591
  YYZ=              9.2648  XYZ=             -7.1052
 Hexadecapole moment (field-independent basis, Debye-Ang**3):
 XXXX=          -1794.6346 YYYY=           -354.2084 ZZZZ=           -362.0431 XXXY=            -64.5328
 XXXZ=             56.4758 YYYX=             23.6763 YYYZ=            -12.1630 ZZZX=             28.8183
 ZZZY=             -3.6599 XXYY=           -334.3558 XXZZ=           -263.7030 YYZZ=            -97.6410
 XXYZ=             45.6893 YYXZ=            -36.8602 ZZXY=            -10.2565
 N-N= 6.415130008952D+02 E-N=-3.320604339416D+03  KE= 8.307112832596D+02
 PrsmSu:  requested number of processors reduced to:   2 ShMem   1 Linda.
 PrsmSu:  requested number of processors reduced to:  10 ShMem   1 Linda.
   1 Symmetry operations used in ECPInt.
 ECPInt:  NShTT=    3321 NPrTT=   20810 LenC2=    3189 LenP2D=   15181.
 LDataN:  DoStor=T MaxTD1= 9 Len=  602
 Calling FoFJK, ICntrl=      2127 FMM=F ISym2X=0 I1Cent= 0 IOpClX= 0 NMat=1 NMatS=1 NMatT=0.
 CoulSu:  requested number of processors reduced to:  10 ShMem   1 Linda.
 Defaulting to unpruned grid for atomic number  40.
 Defaulting to unpruned grid for atomic number  40.
 Defaulting to unpruned grid for atomic number  40.
 Defaulting to unpruned grid for atomic number  40.
 Defaulting to unpruned grid for atomic number  40.
 Defaulting to unpruned grid for atomic number  40.
 Defaulting to unpruned grid for atomic number  40.
 Defaulting to unpruned grid for atomic number  40.
 Defaulting to unpruned grid for atomic number  40.
 Defaulting to unpruned grid for atomic number  40.
 Defaulting to unpruned grid for atomic number  40.
 Defaulting to unpruned grid for atomic number  40.
 Defaulting to unpruned grid for atomic number  40.
 Defaulting to unpruned grid for atomic number  40.
 Defaulting to unpruned grid for atomic number  40.
 Defaulting to unpruned grid for atomic number  40.
 ***** Axes restored to original set *****
 -------------------------------------------------------------------
 Center     Atomic                   Forces (Hartrees/Bohr)
 Number     Number              X              Y              Z
 -------------------------------------------------------------------
      1       40           0.007577810    0.000648503    0.000433243
      2       14          -0.004855915   -0.002909464   -0.000167376
      3        8          -0.002840854    0.001902605   -0.000460139
      4        8          -0.000060225    0.000918646    0.000371286
      5        8           0.000329628    0.000582829   -0.000106659
      6        8           0.000108526    0.000505797    0.000018769
      7        1           0.000089657   -0.000186786   -0.000067927
      8        1           0.000025630   -0.000002486    0.000004080
      9        1           0.000166073    0.000228298    0.000121852
     10        8          -0.000210015   -0.000286731   -0.000156407
     11        1          -0.000012387    0.000024893    0.000058331
     12        8           0.000002174   -0.000082649    0.000219926
     13        1          -0.000052729   -0.000007608   -0.000079023
     14        8          -0.000038171   -0.001302371   -0.000460616
     15        1          -0.000229202   -0.000033475    0.000270660
 -------------------------------------------------------------------
 Cartesian Forces:  Max     0.007577810 RMS     0.001535638

 GradGradGradGradGradGradGradGradGradGradGradGradGradGradGradGradGradGrad
 Berny optimization.
 FormGI is forming the generalized inverse of G from B-inverse, IUseBI=4.
 Internal  Forces:  Max     0.006985306 RMS     0.001504329
 Search for a local minimum.
 Step number   1 out of a maximum of   62
 All quantities printed in internal units (Hartrees-Bohrs-Radians)
 Mixed Optimization -- RFO/linear search
 Second derivative matrix not updated -- first step.
 ITU=  0
     Eigenvalues ---    0.00230   0.01596   0.01596   0.01597   0.01597
     Eigenvalues ---    0.01598   0.01598   0.03522   0.03617   0.03636
     Eigenvalues ---    0.03969   0.11780   0.12039   0.12694   0.15564
     Eigenvalues ---    0.15873   0.16000   0.16000   0.16000   0.19533
     Eigenvalues ---    0.20181   0.21252   0.21482   0.21527   0.21945
     Eigenvalues ---    0.25000   0.25000   0.25000   0.40909   0.41958
     Eigenvalues ---    0.42174   0.45937   0.54664   0.54703   0.54725
     Eigenvalues ---    0.56111   0.56113   0.561381000.000001000.00000
     Eigenvalues --- 1000.000001000.000001000.000001000.000001000.00000
     Eigenvalues --- 1000.000001000.000001000.000001000.000001000.00000
     Eigenvalues --- 1000.000001000.00000
 RFO step:  Lambda=-6.97385529D-04 EMin= 2.30000000D-03
 Linear search not attempted -- first point.
 Iteration  1 RMS(Cart)=  0.18656352 RMS(Int)=  0.00620265
 Iteration  2 RMS(Cart)=  0.01085509 RMS(Int)=  0.00001147
 Iteration  3 RMS(Cart)=  0.00002991 RMS(Int)=  0.00000270
 Iteration  4 RMS(Cart)=  0.00000000 RMS(Int)=  0.00000270
 Iteration  1 RMS(Cart)=  0.00000442 RMS(Int)=  0.00000152
 Iteration  2 RMS(Cart)=  0.00000336 RMS(Int)=  0.00000166
 Iteration  3 RMS(Cart)=  0.00000255 RMS(Int)=  0.00000191
 Iteration  4 RMS(Cart)=  0.00000194 RMS(Int)=  0.00000215
 Iteration  5 RMS(Cart)=  0.00000148 RMS(Int)=  0.00000236
 Iteration  6 RMS(Cart)=  0.00000112 RMS(Int)=  0.00000253
 Iteration  7 RMS(Cart)=  0.00000085 RMS(Int)=  0.00000267
 Variable       Old X    -DE/DX   Delta X   Delta X   Delta X     New X
                                 (Linear)    (Quad)   (Total)
    R1        3.72697   0.00699   0.00000   0.03824   0.03824   3.76521
    R2        3.65948   0.00015   0.00000   0.00069   0.00069   3.66016
    R3        3.66086   0.00013   0.00000   0.00058   0.00058   3.66144
    R4        3.64668  -0.00123   0.00000  -0.00561  -0.00561   3.64107
    R5        3.07641   0.00290   0.00000   0.00497   0.00496   3.08137
    R6        3.12402   0.00124   0.00000   0.00294   0.00294   3.12696
    R7        3.14037  -0.00059   0.00000  -0.00143  -0.00143   3.13893
    R8        3.12677   0.00003   0.00000   0.00008   0.00008   3.12685
    R9        1.82097   0.00004   0.00000   0.00007   0.00007   1.82103
   R10        1.82077   0.00007   0.00000   0.00014   0.00014   1.82091
   R11        1.82131  -0.00002   0.00000  -0.00003  -0.00003   1.82128
   R12        1.80835  -0.00006   0.00000  -0.00010  -0.00010   1.80824
   R13        1.80858  -0.00009   0.00000  -0.00017  -0.00017   1.80841
   R14        1.80856  -0.00014   0.00000  -0.00025  -0.00025   1.80832
    A1        1.88835  -0.00100   0.00000  -0.00465  -0.00466   1.88369
    A2        1.88384   0.00006   0.00000   0.00076   0.00076   1.88460
    A3        1.91625  -0.00011   0.00000  -0.00024  -0.00025   1.91600
    A4        1.92387   0.00023   0.00000   0.00054   0.00054   1.92442
    A5        1.92200   0.00004   0.00000  -0.00084  -0.00085   1.92115
    A6        1.92870   0.00073   0.00000   0.00427   0.00427   1.93296
    A7        0.38386  -0.00337   0.00000   0.00000  -0.00000   0.38385
    A8        1.85659  -0.00021   0.00000  -0.00189  -0.00189   1.85470
    A9        1.91681   0.00004   0.00000   0.00081   0.00081   1.91762
   A10        2.00442   0.00028   0.00000   0.00192   0.00191   2.00633
   A11        1.98570  -0.00003   0.00000  -0.00064  -0.00064   1.98506
   A12        1.86878  -0.00033   0.00000  -0.00224  -0.00224   1.86654
   A13        1.83492   0.00025   0.00000   0.00203   0.00203   1.83695
   A14        2.44346   0.00638   0.00000   0.00281   0.00278   2.44624
   A15        2.02426   0.00055   0.00000   0.00342   0.00342   2.02768
   A16        2.02688  -0.00007   0.00000  -0.00042  -0.00042   2.02646
   A17        2.01602  -0.00001   0.00000  -0.00008  -0.00008   2.01595
   A18        3.24814   0.00005   0.00000   0.00290   0.00290   3.25104
   A19        3.31204  -0.00002   0.00000  -0.00091  -0.00091   3.31113
   A20        3.06082  -0.00052   0.00000  -0.03144  -0.03144   3.02938
   A21        2.98613   0.00002   0.00000   0.00091   0.00091   2.98704
   A22        3.24696  -0.00001   0.00000  -0.00081  -0.00081   3.24614
   A23        3.13408  -0.00028   0.00000  -0.01651  -0.01651   3.11757
    D1       -2.38083  -0.00045   0.00000  -0.19128  -0.19129  -2.57212
    D2        1.82065  -0.00021   0.00000  -0.18977  -0.18977   1.63088
    D3       -0.28279  -0.00107   0.00000  -0.19528  -0.19528  -0.47806
    D4       -0.52207  -0.00036   0.00000  -0.01041  -0.01041  -0.53248
    D5       -2.67828  -0.00021   0.00000  -0.00893  -0.00893  -2.68720
    D6        1.54172  -0.00075   0.00000  -0.01338  -0.01338   1.52834
    D7        2.89578   0.00003   0.00000  -0.00046  -0.00046   2.89532
    D8       -1.27480  -0.00009   0.00000  -0.00114  -0.00114  -1.27594
    D9        0.74458  -0.00001   0.00000  -0.00043  -0.00043   0.74415
   D10        0.61661  -0.00037   0.00000  -0.00516  -0.00516   0.61145
   D11       -1.46199  -0.00011   0.00000  -0.00290  -0.00290  -1.46489
   D12        2.78201   0.00015   0.00000  -0.00113  -0.00113   2.78088
   D13        1.54676   0.00023   0.00000   0.00182   0.00183   1.54859
   D14       -2.67951  -0.00010   0.00000  -0.00094  -0.00094  -2.68046
   D15       -0.56200  -0.00016   0.00000  -0.00175  -0.00175  -0.56375
         Item               Value     Threshold  Converged?
 Maximum Force            0.007506     0.000450     NO 
 RMS     Force            0.001172     0.000300     NO 
 Maximum Displacement     0.517186     0.001800     NO 
 RMS     Displacement     0.189273     0.001200     NO 
 Predicted change in Energy=-3.883131D-04
 GradGradGradGradGradGradGradGradGradGradGradGradGradGradGradGradGradGrad

                          Input orientation:                          
 ---------------------------------------------------------------------
 Center     Atomic      Atomic             Coordinates (Angstroms)
 Number     Number       Type             X           Y           Z
 ---------------------------------------------------------------------
      1         40           0        1.393031   -0.009602   -0.052604
      2         14           0       -1.963765    0.579483    0.000886
      3          8           0       -0.580696   -0.282151   -0.058618
      4          8           0       -1.627765    1.934608    0.889047
      5          8           0       -3.182464   -0.352241    0.637875
      6          8           0       -2.530110    1.092856   -1.466625
      7          1           0       -2.924620   -0.974159    1.327241
      8          1           0       -3.117543    0.479595   -1.922376
      9          1           0       -2.276473    2.645628    0.841633
     10          8           0        2.190544   -1.402563   -1.136632
     11          1           0        2.710296   -1.994573   -1.679774
     12          8           0        2.010370   -0.148367    1.778718
     13          1           0        2.446822   -0.099433    2.628957
     14          8           0        1.814376    1.721717   -0.785712
     15          1           0        1.938568    2.619683   -1.092186
 ---------------------------------------------------------------------
                    Distance matrix (angstroms):
                    1          2          3          4          5
     1  Zr   0.000000
     2  Si   3.408513   0.000000
     3  O    1.992465   1.630593   0.000000
     4  O    3.713740   1.654717   2.628391   0.000000
     5  O    4.639970   1.661052   2.694293   2.776663   0.000000
     6  O    4.313456   1.654656   2.770080   2.659316   2.634918
     7  H    4.634269   2.257490   2.809530   3.214773   0.963582
     8  H    4.907203   2.245021   3.238741   3.498656   2.692778
     9  H    4.616835   2.252464   3.501143   0.963649   3.138400
    10  O    1.936875   4.741386   3.177611   5.460730   5.755109
    11  H    2.884958   5.594393   4.048600   6.391876   6.541665
    12  O    1.937551   4.414091   3.179202   4.285595   5.320585
    13  H    2.882588   5.178896   4.052445   4.875128   5.976386
    14  O    1.926770   4.024647   3.206325   3.833859   5.594311
    15  H    2.879494   4.537116   3.979397   4.136828   6.168502
                    6          7          8          9         10
     6  O    0.000000
     7  H    3.497696   0.000000
     8  H    0.963782   3.565197   0.000000
     9  H    2.793472   3.709281   3.610934   0.000000
    10  O    5.349821   5.693778   5.686450   6.344732   0.000000
    11  H    6.086009   6.468050   6.335936   7.263389   0.956881
    12  O    5.717416   5.023932   6.355150   5.202073   3.178795
    13  H    6.554784   5.595713   7.211939   5.747991   3.992929
    14  O    4.442259   5.847255   5.211401   4.498545   3.166350
    15  H    4.737139   6.513058   5.552788   4.637553   4.030376
                   11         12         13         14         15
    11  H    0.000000
    12  O    3.982404   0.000000
    13  H    4.714460   0.956969   0.000000
    14  O    3.925918   3.179925   3.921293   0.000000
    15  H    4.715102   3.988652   4.636682   0.956919   0.000000
 Stoichiometry    H6O7SiZr
 Framework group  C1[X(H6O7SiZr)]
 Deg. of freedom    39
 Full point group                 C1      NOp   1
 Largest Abelian subgroup         C1      NOp   1
 Largest concise Abelian subgroup C1      NOp   1
                         Standard orientation:                         
 ---------------------------------------------------------------------
 Center     Atomic      Atomic             Coordinates (Angstroms)
 Number     Number       Type             X           Y           Z
 ---------------------------------------------------------------------
      1         40           0       -1.320609    0.009094   -0.034413
      2         14           0        2.087589    0.051329   -0.053526
      3          8           0        0.568743    0.372106   -0.552571
      4          8           0        2.015707   -0.081494    1.594284
      5          8           0        3.119154    1.240221   -0.584094
      6          8           0        2.725442   -1.364809   -0.624125
      7          1           0        2.757289    2.132730   -0.615250
      8          1           0        3.185353   -1.302219   -1.468780
      9          1           0        2.784057   -0.474487    2.023020
     10          8           0       -2.371498   -0.109880   -1.657053
     11          1           0       -2.996578   -0.245001   -2.368838
     12          8           0       -1.936078    1.487181    1.056716
     13          1           0       -2.348153    2.090393    1.674874
     14          8           0       -1.421836   -1.648795    0.942111
     15          1           0       -1.380943   -2.440042    1.478720
 ---------------------------------------------------------------------
 Rotational constants (GHZ):           1.6646998           0.5066165           0.5055543
 Basis read from rwf:  (5D, 7F)
 Pseudo-potential data read from rwf file.
 There are   300 symmetry adapted cartesian basis functions of A   symmetry.
 There are   266 symmetry adapted basis functions of A   symmetry.
   266 basis functions,   576 primitive gaussians,   300 cartesian basis functions
    44 alpha electrons       44 beta electrons
       nuclear repulsion energy       640.0304320079 Hartrees.
 NAtoms=   15 NActive=   15 NUniq=   15 SFac= 1.00D+00 NAtFMM=   60 NAOKFM=F Big=F
 Integral buffers will be    131072 words long.
 Raffenetti 2 integral format.
 Two-electron integral symmetry is turned on.
 Nuclear repulsion after empirical dispersion term =      640.0199496279 Hartrees.
 One-electron integrals computed using PRISM.
 PrsmSu:  requested number of processors reduced to:   4 ShMem   1 Linda.
   1 Symmetry operations used in ECPInt.
 ECPInt:  NShTT=    3321 NPrTT=   20810 LenC2=    3188 LenP2D=   15163.
 LDataN:  DoStor=T MaxTD1= 8 Len=  415
 NBasis=   266 RedAO= T EigKep=  1.13D-04  NBF=   266
 NBsUse=   266 1.00D-06 EigRej= -1.00D+00 NBFU=   266
 Defaulting to unpruned grid for atomic number  40.
 Initial guess from the checkpoint file:  "/localscratch/sarashs.35250434.0/Gau-19434.chk"
 B after Tr=    -0.000000   -0.000000   -0.000000
         Rot=    0.997493   -0.070509   -0.003043    0.005196 Ang=  -8.12 deg.
 ExpMin= 1.01D-02 ExpMax= 1.61D+04 ExpMxC= 2.43D+03 IAcc=3 IRadAn=         5 AccDes= 0.00D+00
 Harris functional with IExCor=  402 and IRadAn=       5 diagonalized for initial guess.
 HarFok:  IExCor=  402 AccDes= 0.00D+00 IRadAn=         5 IDoV= 1 UseB2=F ITyADJ=14
 ICtDFT=  3500011 ScaDFX=  1.000000  1.000000  1.000000  1.000000
 Defaulting to unpruned grid for atomic number  40.
 FoFCou: FMM=F IPFlag=           0 FMFlag=      100000 FMFlg1=           0
         NFxFlg=           0 DoJE=T BraDBF=F KetDBF=T FulRan=T
         wScrn=  0.000000 ICntrl=       500 IOpCl=  0 I1Cent=   200000004 NGrid=           0
         NMat0=    1 NMatS0=      1 NMatT0=    0 NMatD0=    1 NMtDS0=    0 NMtDT0=    0
 Petite list used in FoFCou.
 Requested convergence on RMS density matrix=1.00D-08 within 128 cycles.
 Requested convergence on MAX density matrix=1.00D-06.
 Requested convergence on             energy=1.00D-06.
 No special actions if energy rises.
 Defaulting to unpruned grid for atomic number  40.
 Defaulting to unpruned grid for atomic number  40.
 Defaulting to unpruned grid for atomic number  40.
 Defaulting to unpruned grid for atomic number  40.
 Defaulting to unpruned grid for atomic number  40.
 Defaulting to unpruned grid for atomic number  40.
 Defaulting to unpruned grid for atomic number  40.
 Defaulting to unpruned grid for atomic number  40.
 Defaulting to unpruned grid for atomic number  40.
 Defaulting to unpruned grid for atomic number  40.
 Defaulting to unpruned grid for atomic number  40.
 Defaulting to unpruned grid for atomic number  40.
 Defaulting to unpruned grid for atomic number  40.
 Defaulting to unpruned grid for atomic number  40.
 Defaulting to unpruned grid for atomic number  40.
 Defaulting to unpruned grid for atomic number  40.
 SCF Done:  E(RB3LYP) =  -867.127043632     A.U. after   12 cycles
            NFock= 12  Conv=0.50D-08     -V/T= 2.0439
 PrsmSu:  requested number of processors reduced to:   2 ShMem   1 Linda.
 PrsmSu:  requested number of processors reduced to:  10 ShMem   1 Linda.
   1 Symmetry operations used in ECPInt.
 ECPInt:  NShTT=    3321 NPrTT=   20810 LenC2=    3188 LenP2D=   15163.
 LDataN:  DoStor=T MaxTD1= 9 Len=  602
 Calling FoFJK, ICntrl=      2127 FMM=F ISym2X=0 I1Cent= 0 IOpClX= 0 NMat=1 NMatS=1 NMatT=0.
 CoulSu:  requested number of processors reduced to:  10 ShMem   1 Linda.
 Defaulting to unpruned grid for atomic number  40.
 Defaulting to unpruned grid for atomic number  40.
 Defaulting to unpruned grid for atomic number  40.
 Defaulting to unpruned grid for atomic number  40.
 Defaulting to unpruned grid for atomic number  40.
 Defaulting to unpruned grid for atomic number  40.
 Defaulting to unpruned grid for atomic number  40.
 Defaulting to unpruned grid for atomic number  40.
 Defaulting to unpruned grid for atomic number  40.
 Defaulting to unpruned grid for atomic number  40.
 Defaulting to unpruned grid for atomic number  40.
 Defaulting to unpruned grid for atomic number  40.
 Defaulting to unpruned grid for atomic number  40.
 Defaulting to unpruned grid for atomic number  40.
 Defaulting to unpruned grid for atomic number  40.
 Defaulting to unpruned grid for atomic number  40.
 ***** Axes restored to original set *****
 -------------------------------------------------------------------
 Center     Atomic                   Forces (Hartrees/Bohr)
 Number     Number              X              Y              Z
 -------------------------------------------------------------------
      1       40          -0.001235583   -0.002381243    0.001618692
      2       14          -0.001422661   -0.003167849   -0.000111305
      3        8           0.002828649    0.003563388   -0.000400099
      4        8           0.000253306    0.000696199    0.000196153
      5        8          -0.000063439    0.000307717    0.000040413
      6        8          -0.000114714    0.000362724   -0.000035995
      7        1           0.000112725   -0.000099428   -0.000178308
      8        1           0.000000325   -0.000011590   -0.000016671
      9        1           0.000141288    0.000060827    0.000028513
     10        8          -0.000441185    0.000277765    0.000305190
     11        1           0.000088356    0.000031528    0.000012117
     12        8          -0.000012384    0.000030416   -0.001144609
     13        1          -0.000060297    0.000043887    0.000094999
     14        8          -0.000126848    0.000060256   -0.000439407
     15        1           0.000052462    0.000225401    0.000030317
 -------------------------------------------------------------------
 Cartesian Forces:  Max     0.003563388 RMS     0.001006951

 GradGradGradGradGradGradGradGradGradGradGradGradGradGradGradGradGradGrad
 Berny optimization.
 Using GEDIIS/GDIIS optimizer.
 FormGI is forming the generalized inverse of G from B-inverse, IUseBI=4.
 Internal  Forces:  Max     0.003973509 RMS     0.000755673
 Search for a local minimum.
 Step number   2 out of a maximum of   62
 All quantities printed in internal units (Hartrees-Bohrs-Radians)
 Mixed Optimization -- En-DIIS/RFO-DIIS
 Update second derivatives using D2CorX and points    1    2
 DE= -4.13D-04 DEPred=-3.88D-04 R= 1.06D+00
 TightC=F SS=  1.41D+00  RLast= 3.38D-01 DXNew= 5.0454D-01 1.0130D+00
 Trust test= 1.06D+00 RLast= 3.38D-01 DXMaxT set to 5.05D-01
 ITU=  1  0
 Use linear search instead of GDIIS.
     Eigenvalues ---    0.00179   0.01566   0.01596   0.01596   0.01598
     Eigenvalues ---    0.01598   0.01614   0.03511   0.03617   0.03635
     Eigenvalues ---    0.03950   0.11617   0.12030   0.12707   0.15377
     Eigenvalues ---    0.15911   0.15970   0.16000   0.16002   0.19907
     Eigenvalues ---    0.20833   0.21289   0.21517   0.21859   0.24105
     Eigenvalues ---    0.24944   0.25000   0.26793   0.40873   0.41960
     Eigenvalues ---    0.41990   0.46739   0.54665   0.54705   0.54727
     Eigenvalues ---    0.56111   0.56135   0.561451000.000001000.00000
     Eigenvalues --- 1000.000001000.000001000.000001000.000001000.00000
     Eigenvalues --- 1000.000001000.000001000.000001000.000001000.00000
     Eigenvalues --- 1000.000001000.00000
 RFO step:  Lambda=-1.30182485D-04 EMin= 1.78962930D-03
 Quartic linear search produced a step of  0.16879.
 Iteration  1 RMS(Cart)=  0.13354261 RMS(Int)=  0.00318533
 Iteration  2 RMS(Cart)=  0.00539265 RMS(Int)=  0.00000406
 Iteration  3 RMS(Cart)=  0.00000684 RMS(Int)=  0.00000298
 Iteration  4 RMS(Cart)=  0.00000000 RMS(Int)=  0.00000298
 Iteration  1 RMS(Cart)=  0.00000147 RMS(Int)=  0.00000051
 Iteration  2 RMS(Cart)=  0.00000112 RMS(Int)=  0.00000055
 Iteration  3 RMS(Cart)=  0.00000085 RMS(Int)=  0.00000063
 Variable       Old X    -DE/DX   Delta X   Delta X   Delta X     New X
                                 (Linear)    (Quad)   (Total)
    R1        3.76521  -0.00184   0.00646  -0.00961  -0.00315   3.76206
    R2        3.66016  -0.00055   0.00012  -0.00294  -0.00282   3.65734
    R3        3.66144  -0.00102   0.00010  -0.00550  -0.00540   3.65604
    R4        3.64107   0.00040  -0.00095   0.00220   0.00125   3.64232
    R5        3.08137  -0.00019   0.00084  -0.00165  -0.00081   3.08056
    R6        3.12696   0.00082   0.00050   0.00220   0.00269   3.12965
    R7        3.13893  -0.00020  -0.00024  -0.00055  -0.00079   3.13814
    R8        3.12685   0.00020   0.00001   0.00054   0.00055   3.12740
    R9        1.82103  -0.00005   0.00001  -0.00011  -0.00010   1.82093
   R10        1.82091  -0.00003   0.00002  -0.00007  -0.00004   1.82086
   R11        1.82128   0.00002  -0.00000   0.00003   0.00003   1.82131
   R12        1.80824   0.00002  -0.00002   0.00005   0.00003   1.80827
   R13        1.80841   0.00006  -0.00003   0.00012   0.00010   1.80851
   R14        1.80832   0.00021  -0.00004   0.00043   0.00039   1.80871
    A1        1.88369  -0.00041  -0.00079  -0.00219  -0.00298   1.88071
    A2        1.88460   0.00084   0.00013   0.00434   0.00447   1.88907
    A3        1.91600  -0.00051  -0.00004  -0.00247  -0.00251   1.91349
    A4        1.92442  -0.00010   0.00009  -0.00028  -0.00019   1.92422
    A5        1.92115   0.00002  -0.00014  -0.00088  -0.00103   1.92012
    A6        1.93296   0.00017   0.00072   0.00146   0.00218   1.93514
    A7        0.38385  -0.00229  -0.00000   0.00000   0.00000   0.38385
    A8        1.85470  -0.00055  -0.00032  -0.00401  -0.00433   1.85037
    A9        1.91762   0.00019   0.00014   0.00189   0.00202   1.91964
   A10        2.00633   0.00040   0.00032   0.00237   0.00269   2.00902
   A11        1.98506   0.00034  -0.00011   0.00179   0.00169   1.98674
   A12        1.86654  -0.00025  -0.00038  -0.00235  -0.00273   1.86381
   A13        1.83695  -0.00009   0.00034   0.00045   0.00078   1.83773
   A14        2.44624   0.00397   0.00047  -0.00065  -0.00019   2.44606
   A15        2.02768   0.00024   0.00058   0.00164   0.00222   2.02990
   A16        2.02646  -0.00016  -0.00007  -0.00117  -0.00124   2.02522
   A17        2.01595   0.00001  -0.00001   0.00008   0.00007   2.01601
   A18        3.25104   0.00014   0.00049   0.00988   0.01037   3.26141
   A19        3.31113  -0.00016  -0.00015  -0.01146  -0.01162   3.29952
   A20        3.02938  -0.00004  -0.00531  -0.00189  -0.00719   3.02219
   A21        2.98704  -0.00007   0.00015  -0.00511  -0.00496   2.98209
   A22        3.24614   0.00008  -0.00014   0.00612   0.00598   3.25213
   A23        3.11757  -0.00018  -0.00279  -0.01250  -0.01529   3.10228
    D1       -2.57212  -0.00005  -0.03229  -0.10475  -0.13705  -2.70916
    D2        1.63088  -0.00017  -0.03203  -0.10560  -0.13763   1.49325
    D3       -0.47806  -0.00058  -0.03296  -0.10857  -0.14153  -0.61959
    D4       -0.53248   0.00015  -0.00176   0.00017  -0.00158  -0.53407
    D5       -2.68720  -0.00002  -0.00151  -0.00061  -0.00211  -2.68931
    D6        1.52834  -0.00031  -0.00226  -0.00412  -0.00639   1.52195
    D7        2.89532  -0.00005  -0.00008  -0.00164  -0.00172   2.89361
    D8       -1.27594   0.00001  -0.00019  -0.00096  -0.00116  -1.27710
    D9        0.74415  -0.00007  -0.00007  -0.00093  -0.00101   0.74314
   D10        0.61145  -0.00041  -0.00087  -0.00604  -0.00692   0.60453
   D11       -1.46489  -0.00006  -0.00049  -0.00344  -0.00393  -1.46881
   D12        2.78088   0.00012  -0.00019  -0.00181  -0.00200   2.77888
   D13        1.54859   0.00034   0.00031   0.00289   0.00321   1.55179
   D14       -2.68046  -0.00029  -0.00016  -0.00233  -0.00249  -2.68295
   D15       -0.56375  -0.00007  -0.00030  -0.00121  -0.00150  -0.56525
         Item               Value     Threshold  Converged?
 Maximum Force            0.001499     0.000450     NO 
 RMS     Force            0.000393     0.000300     NO 
 Maximum Displacement     0.350327     0.001800     NO 
 RMS     Displacement     0.134493     0.001200     NO 
 Predicted change in Energy=-8.374646D-05
 GradGradGradGradGradGradGradGradGradGradGradGradGradGradGradGradGradGrad

                          Input orientation:                          
 ---------------------------------------------------------------------
 Center     Atomic      Atomic             Coordinates (Angstroms)
 Number     Number       Type             X           Y           Z
 ---------------------------------------------------------------------
      1         40           0        1.391915   -0.006171   -0.080912
      2         14           0       -1.963213    0.575054    0.013674
      3          8           0       -0.579954   -0.278107   -0.113387
      4          8           0       -1.623350    1.850295    1.014204
      5          8           0       -3.185339   -0.404145    0.566199
      6          8           0       -2.525312    1.216721   -1.404479
      7          1           0       -2.928853   -1.085209    1.197714
      8          1           0       -3.113188    0.647309   -1.913473
      9          1           0       -2.267815    2.566548    1.027018
     10          8           0        2.204162   -1.456486   -1.072144
     11          1           0        2.739997   -2.078736   -1.563403
     12          8           0        1.978024   -0.044211    1.762471
     13          1           0        2.385188    0.059470    2.622328
     14          8           0        1.826692    1.681005   -0.905171
     15          1           0        1.961616    2.567140   -1.240808
 ---------------------------------------------------------------------
                    Distance matrix (angstroms):
                    1          2          3          4          5
     1  Zr   0.000000
     2  Si   3.406414   0.000000
     3  O    1.990796   1.630164   0.000000
     4  O    3.706423   1.656142   2.624925   0.000000
     5  O    4.639870   1.660634   2.695507   2.779032   0.000000
     6  O    4.311839   1.654947   2.772336   2.658002   2.635605
     7  H    4.633384   2.256299   2.808510   3.217950   0.963559
     8  H    4.907267   2.245342   3.242527   3.498298   2.694352
     9  H    4.608690   2.255149   3.498780   0.963596   3.143123
    10  O    1.935380   4.761635   3.171607   5.471516   5.730472
    11  H    2.882816   5.625830   4.045600   6.412499   6.515295
    12  O    1.934691   4.356045   3.180692   4.137506   5.312339
    13  H    2.880696   5.097009   4.048477   4.675628   5.955954
    14  O    1.927432   4.053490   3.202652   3.951639   5.624343
    15  H    2.879557   4.576725   3.978201   4.295454   6.211679
                    6          7          8          9         10
     6  O    0.000000
     7  H    3.497590   0.000000
     8  H    0.963797   3.565822   0.000000
     9  H    2.792940   3.715029   3.611734   0.000000
    10  O    5.442830   5.624761   5.779965   6.371017   0.000000
    11  H    6.213595   6.383316   6.466347   7.305281   0.956896
    12  O    5.647969   5.047779   6.317532   5.038264   3.175011
    13  H    6.455030   5.619506   7.152007   5.520951   3.997501
    14  O    4.405088   5.889760   5.146612   4.613299   3.164524
    15  H    4.688597   6.572879   5.467345   4.799076   4.034456
                   11         12         13         14         15
    11  H    0.000000
    12  O    3.972573   0.000000
    13  H    4.713615   0.957020   0.000000
    14  O    3.924672   3.180500   3.922314   0.000000
    15  H    4.721664   3.979837   4.625111   0.957127   0.000000
 Stoichiometry    H6O7SiZr
 Framework group  C1[X(H6O7SiZr)]
 Deg. of freedom    39
 Full point group                 C1      NOp   1
 Largest Abelian subgroup         C1      NOp   1
 Largest concise Abelian subgroup C1      NOp   1
                         Standard orientation:                         
 ---------------------------------------------------------------------
 Center     Atomic      Atomic             Coordinates (Angstroms)
 Number     Number       Type             X           Y           Z
 ---------------------------------------------------------------------
      1         40           0       -1.319744    0.014254   -0.032803
      2         14           0        2.086332    0.060164   -0.046650
      3          8           0        0.567599    0.448119   -0.494285
      4          8           0        2.008405   -0.302975    1.567309
      5          8           0        3.120132    1.309632   -0.404133
      6          8           0        2.724921   -1.265227   -0.804537
      7          1           0        2.757194    2.197710   -0.314470
      8          1           0        3.186951   -1.087957   -1.631584
      9          1           0        2.773413   -0.754355    1.940855
     10          8           0       -2.405999    0.369968   -1.594602
     11          1           0       -3.057637    0.456484   -2.289968
     12          8           0       -1.861788    1.153966    1.433578
     13          1           0       -2.223828    1.576948    2.211975
     14          8           0       -1.455951   -1.845208    0.455913
     15          1           0       -1.433507   -2.747481    0.774493
 ---------------------------------------------------------------------
 Rotational constants (GHZ):           1.6661159           0.5073076           0.5062092
 Basis read from rwf:  (5D, 7F)
 Pseudo-potential data read from rwf file.
 There are   300 symmetry adapted cartesian basis functions of A   symmetry.
 There are   266 symmetry adapted basis functions of A   symmetry.
   266 basis functions,   576 primitive gaussians,   300 cartesian basis functions
    44 alpha electrons       44 beta electrons
       nuclear repulsion energy       640.2381911976 Hartrees.
 NAtoms=   15 NActive=   15 NUniq=   15 SFac= 1.00D+00 NAtFMM=   60 NAOKFM=F Big=F
 Integral buffers will be    131072 words long.
 Raffenetti 2 integral format.
 Two-electron integral symmetry is turned on.
 Nuclear repulsion after empirical dispersion term =      640.2277182428 Hartrees.
 One-electron integrals computed using PRISM.
 PrsmSu:  requested number of processors reduced to:   4 ShMem   1 Linda.
   1 Symmetry operations used in ECPInt.
 ECPInt:  NShTT=    3321 NPrTT=   20810 LenC2=    3189 LenP2D=   15171.
 LDataN:  DoStor=T MaxTD1= 8 Len=  415
 NBasis=   266 RedAO= T EigKep=  1.11D-04  NBF=   266
 NBsUse=   266 1.00D-06 EigRej= -1.00D+00 NBFU=   266
 Defaulting to unpruned grid for atomic number  40.
 Initial guess from the checkpoint file:  "/localscratch/sarashs.35250434.0/Gau-19434.chk"
 B after Tr=     0.000000   -0.000000    0.000000
         Rot=    0.993834   -0.110810   -0.002353    0.003123 Ang= -12.73 deg.
 ExpMin= 1.01D-02 ExpMax= 1.61D+04 ExpMxC= 2.43D+03 IAcc=3 IRadAn=         5 AccDes= 0.00D+00
 Harris functional with IExCor=  402 and IRadAn=       5 diagonalized for initial guess.
 HarFok:  IExCor=  402 AccDes= 0.00D+00 IRadAn=         5 IDoV= 1 UseB2=F ITyADJ=14
 ICtDFT=  3500011 ScaDFX=  1.000000  1.000000  1.000000  1.000000
 Defaulting to unpruned grid for atomic number  40.
 FoFCou: FMM=F IPFlag=           0 FMFlag=      100000 FMFlg1=           0
         NFxFlg=           0 DoJE=T BraDBF=F KetDBF=T FulRan=T
         wScrn=  0.000000 ICntrl=       500 IOpCl=  0 I1Cent=   200000004 NGrid=           0
         NMat0=    1 NMatS0=      1 NMatT0=    0 NMatD0=    1 NMtDS0=    0 NMtDT0=    0
 Petite list used in FoFCou.
 Requested convergence on RMS density matrix=1.00D-08 within 128 cycles.
 Requested convergence on MAX density matrix=1.00D-06.
 Requested convergence on             energy=1.00D-06.
 No special actions if energy rises.
 Defaulting to unpruned grid for atomic number  40.
 Defaulting to unpruned grid for atomic number  40.
 Defaulting to unpruned grid for atomic number  40.
 Defaulting to unpruned grid for atomic number  40.
 Defaulting to unpruned grid for atomic number  40.
 Defaulting to unpruned grid for atomic number  40.
 Defaulting to unpruned grid for atomic number  40.
 Defaulting to unpruned grid for atomic number  40.
 Defaulting to unpruned grid for atomic number  40.
 Defaulting to unpruned grid for atomic number  40.
 Defaulting to unpruned grid for atomic number  40.
 Defaulting to unpruned grid for atomic number  40.
 Defaulting to unpruned grid for atomic number  40.
 Defaulting to unpruned grid for atomic number  40.
 Defaulting to unpruned grid for atomic number  40.
 Defaulting to unpruned grid for atomic number  40.
 SCF Done:  E(RB3LYP) =  -867.127139409     A.U. after   12 cycles
            NFock= 12  Conv=0.31D-08     -V/T= 2.0439
 PrsmSu:  requested number of processors reduced to:   2 ShMem   1 Linda.
 PrsmSu:  requested number of processors reduced to:  10 ShMem   1 Linda.
   1 Symmetry operations used in ECPInt.
 ECPInt:  NShTT=    3321 NPrTT=   20810 LenC2=    3189 LenP2D=   15171.
 LDataN:  DoStor=T MaxTD1= 9 Len=  602
 Calling FoFJK, ICntrl=      2127 FMM=F ISym2X=0 I1Cent= 0 IOpClX= 0 NMat=1 NMatS=1 NMatT=0.
 CoulSu:  requested number of processors reduced to:  10 ShMem   1 Linda.
 Defaulting to unpruned grid for atomic number  40.
 Defaulting to unpruned grid for atomic number  40.
 Defaulting to unpruned grid for atomic number  40.
 Defaulting to unpruned grid for atomic number  40.
 Defaulting to unpruned grid for atomic number  40.
 Defaulting to unpruned grid for atomic number  40.
 Defaulting to unpruned grid for atomic number  40.
 Defaulting to unpruned grid for atomic number  40.
 Defaulting to unpruned grid for atomic number  40.
 Defaulting to unpruned grid for atomic number  40.
 Defaulting to unpruned grid for atomic number  40.
 Defaulting to unpruned grid for atomic number  40.
 Defaulting to unpruned grid for atomic number  40.
 Defaulting to unpruned grid for atomic number  40.
 Defaulting to unpruned grid for atomic number  40.
 Defaulting to unpruned grid for atomic number  40.
 ***** Axes restored to original set *****
 -------------------------------------------------------------------
 Center     Atomic                   Forces (Hartrees/Bohr)
 Number     Number              X              Y              Z
 -------------------------------------------------------------------
      1       40          -0.001363745   -0.001759835    0.001032793
      2       14          -0.001181951   -0.001709425    0.000011030
      3        8           0.002027799    0.002903287   -0.000292329
      4        8           0.000186344    0.000169905   -0.000031198
      5        8          -0.000014734    0.000203674    0.000064763
      6        8          -0.000065054    0.000022070    0.000070595
      7        1           0.000060275   -0.000138746   -0.000127819
      8        1          -0.000017475    0.000006634   -0.000040269
      9        1           0.000071561    0.000030630   -0.000068648
     10        8          -0.000053011   -0.000410302   -0.000174732
     11        1           0.000090454    0.000027496    0.000018449
     12        8           0.000523608   -0.000073663   -0.000210524
     13        1          -0.000178557    0.000048926    0.000086665
     14        8          -0.000148821    0.000686096   -0.000339124
     15        1           0.000063307   -0.000006749    0.000000347
 -------------------------------------------------------------------
 Cartesian Forces:  Max     0.002903287 RMS     0.000735300

 GradGradGradGradGradGradGradGradGradGradGradGradGradGradGradGradGradGrad
 Berny optimization.
 Using GEDIIS/GDIIS optimizer.
 FormGI is forming the generalized inverse of G from B-inverse, IUseBI=4.
 Internal  Forces:  Max     0.003442955 RMS     0.000620033
 Search for a local minimum.
 Step number   3 out of a maximum of   62
 All quantities printed in internal units (Hartrees-Bohrs-Radians)
 Mixed Optimization -- En-DIIS/RFO-DIIS
 Swapping is turned off.
 Update second derivatives using D2CorX and points    1    2    3
 DE= -9.58D-05 DEPred=-8.37D-05 R= 1.14D+00
 TightC=F SS=  1.41D+00  RLast= 2.42D-01 DXNew= 8.4853D-01 7.2639D-01
 Trust test= 1.14D+00 RLast= 2.42D-01 DXMaxT set to 7.26D-01
 ITU=  1  1  0
     Eigenvalues ---    0.00165   0.01517   0.01596   0.01597   0.01598
     Eigenvalues ---    0.01601   0.01691   0.03483   0.03617   0.03634
     Eigenvalues ---    0.04098   0.11365   0.12013   0.12741   0.15205
     Eigenvalues ---    0.15893   0.15981   0.16001   0.16007   0.19675
     Eigenvalues ---    0.20942   0.21367   0.21592   0.22521   0.24012
     Eigenvalues ---    0.24877   0.25009   0.26499   0.40848   0.41924
     Eigenvalues ---    0.41971   0.46668   0.54665   0.54704   0.54728
     Eigenvalues ---    0.56111   0.56136   0.561391000.000001000.00000
     Eigenvalues --- 1000.000001000.000001000.000001000.000001000.00000
     Eigenvalues --- 1000.000001000.000001000.000001000.000001000.00000
     Eigenvalues --- 1000.000001000.00000
 En-DIIS/RFO-DIIS/Sim-DIIS IScMMF=       -3 using points:     3    2
 RFO step:  Lambda=-4.10851706D-05.
 DidBck=F Rises=F RFO-DIIS coefs:    1.40190   -0.40190
 Iteration  1 RMS(Cart)=  0.05110436 RMS(Int)=  0.00050300
 Iteration  2 RMS(Cart)=  0.00080218 RMS(Int)=  0.00000306
 Iteration  3 RMS(Cart)=  0.00000014 RMS(Int)=  0.00000306
 Iteration  1 RMS(Cart)=  0.00000116 RMS(Int)=  0.00000040
 Iteration  2 RMS(Cart)=  0.00000088 RMS(Int)=  0.00000043
 Variable       Old X    -DE/DX   Delta X   Delta X   Delta X     New X
                                 (Linear)    (Quad)   (Total)
    R1        3.76206  -0.00116  -0.00127  -0.00118  -0.00244   3.75962
    R2        3.65734   0.00038  -0.00114   0.00293   0.00180   3.65914
    R3        3.65604  -0.00001  -0.00217   0.00129  -0.00089   3.65515
    R4        3.64232   0.00072   0.00050   0.00321   0.00372   3.64604
    R5        3.08056  -0.00005  -0.00033  -0.00047  -0.00079   3.07977
    R6        3.12965   0.00015   0.00108   0.00005   0.00113   3.13079
    R7        3.13814  -0.00009  -0.00032  -0.00021  -0.00053   3.13762
    R8        3.12740   0.00001   0.00022  -0.00008   0.00014   3.12753
    R9        1.82093  -0.00003  -0.00004  -0.00003  -0.00007   1.82087
   R10        1.82086   0.00004  -0.00002   0.00010   0.00008   1.82095
   R11        1.82131   0.00003   0.00001   0.00005   0.00006   1.82138
   R12        1.80827   0.00002   0.00001   0.00003   0.00005   1.80832
   R13        1.80851   0.00001   0.00004  -0.00002   0.00002   1.80852
   R14        1.80871   0.00000   0.00016  -0.00011   0.00004   1.80875
    A1        1.88071  -0.00032  -0.00120  -0.00142  -0.00262   1.87809
    A2        1.88907   0.00089   0.00180   0.00359   0.00538   1.89445
    A3        1.91349  -0.00068  -0.00101  -0.00282  -0.00383   1.90965
    A4        1.92422  -0.00018  -0.00008  -0.00060  -0.00068   1.92355
    A5        1.92012   0.00026  -0.00041   0.00095   0.00052   1.92065
    A6        1.93514   0.00002   0.00087   0.00027   0.00114   1.93628
    A7        0.38385  -0.00197   0.00000   0.00000  -0.00000   0.38385
    A8        1.85037  -0.00034  -0.00174  -0.00165  -0.00338   1.84699
    A9        1.91964   0.00007   0.00081   0.00041   0.00122   1.92086
   A10        2.00902   0.00020   0.00108   0.00052   0.00160   2.01062
   A11        1.98674   0.00033   0.00068   0.00172   0.00240   1.98914
   A12        1.86381  -0.00012  -0.00110  -0.00074  -0.00184   1.86197
   A13        1.83773  -0.00011   0.00031  -0.00016   0.00015   1.83789
   A14        2.44606   0.00344  -0.00007  -0.00005  -0.00013   2.44593
   A15        2.02990   0.00002   0.00089  -0.00009   0.00080   2.03070
   A16        2.02522  -0.00004  -0.00050  -0.00001  -0.00051   2.02471
   A17        2.01601   0.00007   0.00003   0.00048   0.00051   2.01652
   A18        3.26141   0.00015   0.00417   0.00897   0.01314   3.27455
   A19        3.29952  -0.00034  -0.00467  -0.02321  -0.02788   3.27164
   A20        3.02219   0.00010  -0.00289   0.00684   0.00395   3.02613
   A21        2.98209  -0.00006  -0.00199  -0.00325  -0.00525   2.97684
   A22        3.25213   0.00013   0.00240   0.00807   0.01047   3.26260
   A23        3.10228  -0.00005  -0.00614  -0.00169  -0.00784   3.09444
    D1       -2.70916   0.00009  -0.05508   0.00166  -0.05343  -2.76260
    D2        1.49325  -0.00001  -0.05531   0.00119  -0.05413   1.43912
    D3       -0.61959  -0.00017  -0.05688   0.00034  -0.05653  -0.67611
    D4       -0.53407   0.00032  -0.00064   0.00563   0.00500  -0.52907
    D5       -2.68931   0.00010  -0.00085   0.00433   0.00349  -2.68582
    D6        1.52195   0.00005  -0.00257   0.00388   0.00131   1.52327
    D7        2.89361  -0.00008  -0.00069  -0.00196  -0.00265   2.89096
    D8       -1.27710  -0.00003  -0.00047  -0.00155  -0.00201  -1.27912
    D9        0.74314  -0.00006  -0.00041  -0.00127  -0.00168   0.74146
   D10        0.60453  -0.00024  -0.00278  -0.00349  -0.00626   0.59827
   D11       -1.46881  -0.00007  -0.00158  -0.00281  -0.00439  -1.47320
   D12        2.77888  -0.00002  -0.00080  -0.00271  -0.00352   2.77536
   D13        1.55179   0.00017   0.00129   0.00097   0.00226   1.55405
   D14       -2.68295  -0.00022  -0.00100  -0.00130  -0.00230  -2.68525
   D15       -0.56525   0.00004  -0.00060   0.00024  -0.00036  -0.56561
         Item               Value     Threshold  Converged?
 Maximum Force            0.000886     0.000450     NO 
 RMS     Force            0.000274     0.000300     YES
 Maximum Displacement     0.124900     0.001800     NO 
 RMS     Displacement     0.051177     0.001200     NO 
 Predicted change in Energy=-2.074220D-05
 GradGradGradGradGradGradGradGradGradGradGradGradGradGradGradGradGradGrad

                          Input orientation:                          
 ---------------------------------------------------------------------
 Center     Atomic      Atomic             Coordinates (Angstroms)
 Number     Number       Type             X           Y           Z
 ---------------------------------------------------------------------
      1         40           0        1.391143   -0.004720   -0.091402
      2         14           0       -1.962488    0.572516    0.018350
      3          8           0       -0.579340   -0.275515   -0.135960
      4          8           0       -1.616601    1.815856    1.057222
      5          8           0       -3.185116   -0.422246    0.540278
      6          8           0       -2.525783    1.261882   -1.376843
      7          1           0       -2.927711   -1.126009    1.146077
      8          1           0       -3.115328    0.710915   -1.903950
      9          1           0       -2.257860    2.534150    1.093112
     10          8           0        2.206435   -1.476507   -1.049800
     11          1           0        2.753903   -2.106716   -1.517576
     12          8           0        1.970700   -0.006184    1.753952
     13          1           0        2.347728    0.119520    2.624556
     14          8           0        1.828398    1.666768   -0.950188
     15          1           0        1.972490    2.546771   -1.297997
 ---------------------------------------------------------------------
                    Distance matrix (angstroms):
                    1          2          3          4          5
     1  Zr   0.000000
     2  Si   3.404716   0.000000
     3  O    1.989503   1.629744   0.000000
     4  O    3.698697   1.656741   2.621722   0.000000
     5  O    4.638480   1.660355   2.696089   2.781470   0.000000
     6  O    4.312650   1.655019   2.773449   2.656723   2.635595
     7  H    4.630459   2.255751   2.807456   3.222030   0.963604
     8  H    4.909761   2.245758   3.245006   3.497945   2.695028
     9  H    4.600453   2.256185   3.496036   0.963560   3.147334
    10  O    1.936333   4.766483   3.168285   5.467614   5.719147
    11  H    2.882615   5.637526   4.046315   6.412290   6.507238
    12  O    1.934223   4.337877   3.185437   4.083379   5.313054
    13  H    2.882172   5.057221   4.042800   4.588027   5.937178
    14  O    1.929399   4.062791   3.198849   3.989980   5.632122
[...]
 ! A16   A(2,5,7)              115.9297         -DE/DX =    0.0                 !
 ! A17   A(2,6,8)              115.6141         -DE/DX =    0.0                 !
 ! A18   L(1,10,11,8,-1)       193.63           -DE/DX =    0.0                 !
 ! A19   L(1,12,13,7,-1)       181.3868         -DE/DX =    0.0                 !
 ! A20   L(1,14,15,4,-1)       177.6987         -DE/DX =    0.0                 !
 ! A21   L(1,10,11,8,-2)       175.4399         -DE/DX =    0.0                 !
 ! A22   L(1,12,13,7,-2)       198.2565         -DE/DX =    0.0                 !
 ! A23   L(1,14,15,4,-2)       180.4967         -DE/DX =    0.0                 !
 ! D1    D(10,1,3,2)          -169.5438         -DE/DX =    0.0                 !
 ! D2    D(12,1,3,2)            71.7125         -DE/DX =    0.0                 !
 ! D3    D(14,1,3,2)           -49.5334         -DE/DX =    0.0                 !
 ! D4    D(4,2,3,1)            -19.386          -DE/DX =    0.0                 !
 ! D5    D(5,2,3,1)           -142.8606         -DE/DX =    0.0                 !
 ! D6    D(6,2,3,1)             98.0337         -DE/DX =    0.0                 !
 ! D7    D(3,2,4,9)            161.9383         -DE/DX =    0.0                 !
 ! D8    D(5,2,4,9)            -77.2958         -DE/DX =    0.0                 !
 ! D9    D(6,2,4,9)             38.6352         -DE/DX =    0.0                 !
 ! D10   D(3,2,5,7)             29.9869         -DE/DX =    0.0                 !
 ! D11   D(4,2,5,7)            -88.506          -DE/DX =    0.0                 !
 ! D12   D(6,2,5,7)            155.0194         -DE/DX =    0.0                 !
 ! D13   D(3,2,6,8)             89.0635         -DE/DX =    0.0                 !
 ! D14   D(4,2,6,8)           -153.8979         -DE/DX =    0.0                 !
 ! D15   D(5,2,6,8)            -32.3793         -DE/DX =    0.0                 !
 --------------------------------------------------------------------------------
 GradGradGradGradGradGradGradGradGradGradGradGradGradGradGradGradGradGrad

                          Input orientation:                          
 ---------------------------------------------------------------------
 Center     Atomic      Atomic             Coordinates (Angstroms)
 Number     Number       Type             X           Y           Z
 ---------------------------------------------------------------------
      1         40           0        1.387924   -0.001794   -0.136473
      2         14           0       -1.962291    0.579045    0.007881
      3          8           0       -0.580814   -0.237403   -0.278544
      4          8           0       -1.558868    1.790995    1.063591
      5          8           0       -3.121304   -0.460880    0.583402
      6          8           0       -2.640954    1.312608   -1.310655
      7          1           0       -2.797486   -1.214921    1.088358
      8          1           0       -3.260401    0.773137   -1.814747
      9          1           0       -2.181237    2.523414    1.131718
     10          8           0        2.213299   -1.490529   -1.062218
     11          1           0        2.814218   -2.146265   -1.415955
     12          8           0        1.894488   -0.032665    1.731873
     13          1           0        2.101215    0.228586    2.629624
     14          8           0        1.889846    1.671712   -0.954964
     15          1           0        2.102933    2.515440   -1.353061
 ---------------------------------------------------------------------
                    Distance matrix (angstroms):
                    1          2          3          4          5
     1  Zr   0.000000
     2  Si   3.403257   0.000000
     3  O    1.987869   1.630063   0.000000
     4  O    3.652099   1.657135   2.621510   0.000000
     5  O    4.589348   1.660114   2.692022   2.782576   0.000000
     6  O    4.397523   1.654458   2.777042   2.652698   2.638834
     7  H    4.526538   2.254617   2.781654   3.251203   0.963544
     8  H    5.002404   2.246048   3.249815   3.495150   2.700604
     9  H    4.552351   2.256440   3.488883   0.963547   3.176538
    10  O    1.937673   4.781611   3.160939   5.432928   5.676815
    11  H    2.875786   5.680640   4.057549   6.385456   6.486014
    12  O    1.936046   4.268616   3.195436   3.962071   5.163383
    13  H    2.865860   4.848550   3.983448   4.276656   5.651291
    14  O    1.929372   4.118247   3.194749   3.997802   5.659165
    15  H    2.885792   4.704024   3.991895   4.446775   6.316726
                    6          7          8          9         10
     6  O    0.000000
     7  H    3.488290   0.000000
     8  H    0.963770   3.548899   0.000000
     9  H    2.764521   3.789037   3.593010   0.000000
    10  O    5.610977   5.459753   5.970919   6.343267   0.000000
    11  H    6.460169   6.215321   6.751514   7.297336   0.957196
    12  O    5.624674   4.881236   6.308780   4.848222   3.167641
    13  H    6.260117   5.334462   6.985405   5.084226   4.074017
    14  O    4.558905   5.871874   5.298274   4.653316   3.180549
    15  H    4.894186   6.624970   5.658102   4.952605   4.018029
                   11         12         13         14         15
    11  H    0.000000
    12  O    3.901542   0.000000
    13  H    4.744998   0.957573   0.000000
    14  O    3.955241   3.181825   3.869956   0.000000
    15  H    4.716077   4.006633   4.592547   0.956956   0.000000
 Stoichiometry    H6O7SiZr
 Framework group  C1[X(H6O7SiZr)]
 Deg. of freedom    39
 Full point group                 C1      NOp   1
 Largest Abelian subgroup         C1      NOp   1
 Largest concise Abelian subgroup C1      NOp   1
                         Standard orientation:                         
 ---------------------------------------------------------------------
 Center     Atomic      Atomic             Coordinates (Angstroms)
 Number     Number       Type             X           Y           Z
 ---------------------------------------------------------------------
      1         40           0       -1.317774    0.019908   -0.032103
      2         14           0        2.085156    0.066848   -0.036314
      3          8           0        0.566793    0.524377   -0.413601
      4          8           0        1.953741   -0.831688    1.349854
      5          8           0        3.054844    1.405764    0.115305
      6          8           0        2.834520   -0.898628   -1.151457
      7          1           0        2.618027    2.210570    0.415128
      8          1           0        3.323675   -0.436242   -1.841225
      9          1           0        2.702465   -1.399047    1.564187
     10          8           0       -2.438987    1.014857   -1.259920
     11          1           0       -3.163832    1.429838   -1.727482
     12          8           0       -1.747051    0.513015    1.790215
     13          1           0       -1.866489    0.495974    2.740158
     14          8           0       -1.535133   -1.878717   -0.297540
     15          1           0       -1.604891   -2.825095   -0.421102
 ---------------------------------------------------------------------
 Rotational constants (GHZ):           1.6677634           0.5092995           0.5060013

 **********************************************************************

            Population analysis using the SCF Density.

 **********************************************************************

 Orbital symmetries:
       Occupied  (A) (A) (A) (A) (A) (A) (A) (A) (A) (A) (A) (A)
                 (A) (A) (A) (A) (A) (A) (A) (A) (A) (A) (A) (A)
                 (A) (A) (A) (A) (A) (A) (A) (A) (A) (A) (A) (A)
                 (A) (A) (A) (A) (A) (A) (A) (A)
       Virtual   (A) (A) (A) (A) (A) (A) (A) (A) (A) (A) (A) (A)
                 (A) (A) (A) (A) (A) (A) (A) (A) (A) (A) (A) (A)
                 (A) (A) (A) (A) (A) (A) (A) (A) (A) (A) (A) (A)
                 (A) (A) (A) (A) (A) (A) (A) (A) (A) (A) (A) (A)
                 (A) (A) (A) (A) (A) (A) (A) (A) (A) (A) (A) (A)
                 (A) (A) (A) (A) (A) (A) (A) (A) (A) (A) (A) (A)
                 (A) (A) (A) (A) (A) (A) (A) (A) (A) (A) (A) (A)
                 (A) (A) (A) (A) (A) (A) (A) (A) (A) (A) (A) (A)
                 (A) (A) (A) (A) (A) (A) (A) (A) (A) (A) (A) (A)
                 (A) (A) (A) (A) (A) (A) (A) (A) (A) (A) (A) (A)
                 (A) (A) (A) (A) (A) (A) (A) (A) (A) (A) (A) (A)
                 (A) (A) (A) (A) (A) (A) (A) (A) (A) (A) (A) (A)
                 (A) (A) (A) (A) (A) (A) (A) (A) (A) (A) (A) (A)
                 (A) (A) (A) (A) (A) (A) (A) (A) (A) (A) (A) (A)
                 (A) (A) (A) (A) (A) (A) (A) (A) (A) (A) (A) (A)
                 (A) (A) (A) (A) (A) (A) (A) (A) (A) (A) (A) (A)
                 (A) (A) (A) (A) (A) (A) (A) (A) (A) (A) (A) (A)
                 (A) (A) (A) (A) (A) (A) (A) (A) (A) (A) (A) (A)
                 (A) (A) (A) (A) (A) (A)
 The electronic state is 1-A.
 Alpha  occ. eigenvalues --  -66.20004 -19.15323 -19.15307 -19.15255 -19.14354
 Alpha  occ. eigenvalues --  -19.14162 -19.14070 -19.13227  -5.34124  -3.70088
 Alpha  occ. eigenvalues --   -3.70076  -3.70046  -2.11103  -1.27448  -1.27302
 Alpha  occ. eigenvalues --   -1.26940  -1.02960  -0.99832  -0.99577  -0.96534
 Alpha  occ. eigenvalues --   -0.95331  -0.95219  -0.94122  -0.57587  -0.52398
 Alpha  occ. eigenvalues --   -0.51860  -0.50258  -0.49513  -0.49401  -0.45234
 Alpha  occ. eigenvalues --   -0.39624  -0.37784  -0.37477  -0.35963  -0.35560
 Alpha  occ. eigenvalues --   -0.34844  -0.34375  -0.34004  -0.32969  -0.32559
 Alpha  occ. eigenvalues --   -0.32096  -0.31267  -0.31168  -0.30844
 Alpha virt. eigenvalues --   -0.02905  -0.01218  -0.00595  -0.00501   0.00260
 Alpha virt. eigenvalues --    0.00454   0.00759   0.01204   0.01870   0.02486
 Alpha virt. eigenvalues --    0.02695   0.02913   0.03215   0.03384   0.03480
 Alpha virt. eigenvalues --    0.04161   0.04570   0.04709   0.05439   0.05713
 Alpha virt. eigenvalues --    0.06948   0.09148   0.09472   0.09859   0.09998
 Alpha virt. eigenvalues --    0.10408   0.11753   0.12135   0.13111   0.14022
 Alpha virt. eigenvalues --    0.14328   0.15812   0.16398   0.16786   0.17172
 Alpha virt. eigenvalues --    0.17975   0.18277   0.18686   0.19356   0.19818
 Alpha virt. eigenvalues --    0.20356   0.21293   0.21398   0.22423   0.22837
 Alpha virt. eigenvalues --    0.24004   0.25327   0.25634   0.26081   0.26369
 Alpha virt. eigenvalues --    0.27148   0.27568   0.28456   0.28621   0.28847
 Alpha virt. eigenvalues --    0.29277   0.29716   0.30042   0.30359   0.30988
 Alpha virt. eigenvalues --    0.32145   0.32486   0.32999   0.34691   0.35309
 Alpha virt. eigenvalues --    0.36213   0.37430   0.37794   0.39235   0.40652
 Alpha virt. eigenvalues --    0.41604   0.43332   0.44786   0.45501   0.47298
 Alpha virt. eigenvalues --    0.48250   0.49633   0.50002   0.53618   0.53995
 Alpha virt. eigenvalues --    0.55299   0.56575   0.56964   0.59819   0.60485
 Alpha virt. eigenvalues --    0.61070   0.61428   0.62643   0.66134   0.66720
 Alpha virt. eigenvalues --    0.67289   0.69507   0.72052   0.72446   0.73353
 Alpha virt. eigenvalues --    0.74510   0.76106   0.77960   0.78950   0.80875
 Alpha virt. eigenvalues --    0.83489   0.86263   0.96281   0.98082   0.98179
 Alpha virt. eigenvalues --    1.02195   1.02680   1.03832   1.06490   1.07680
 Alpha virt. eigenvalues --    1.08166   1.17549   1.19471   1.20074   1.20924
 Alpha virt. eigenvalues --    1.21276   1.23170   1.23306   1.24506   1.26429
 Alpha virt. eigenvalues --    1.26848   1.27733   1.28239   1.29135   1.29954
 Alpha virt. eigenvalues --    1.30532   1.30726   1.32414   1.33125   1.33899
 Alpha virt. eigenvalues --    1.36573   1.37455   1.41061   1.43555   1.46284
 Alpha virt. eigenvalues --    1.47234   1.50548   1.54369   1.59286   1.60438
 Alpha virt. eigenvalues --    1.61434   1.62715   1.63326   1.66217   1.67998
 Alpha virt. eigenvalues --    1.69598   1.70887   1.71761   1.72427   1.73171
 Alpha virt. eigenvalues --    1.73844   1.75356   1.76689   1.78028   1.79027
 Alpha virt. eigenvalues --    1.79776   1.81396   1.82609   1.83529   1.84278
 Alpha virt. eigenvalues --    1.85473   1.86485   1.90594   1.91440   1.91902
 Alpha virt. eigenvalues --    1.92508   1.92980   1.95488   1.97392   1.98324
 Alpha virt. eigenvalues --    1.98827   2.00071   2.02873   2.04176   2.06076
 Alpha virt. eigenvalues --    2.09063   2.09916   2.11754   2.12533   2.16566
 Alpha virt. eigenvalues --    2.20462   2.21702   2.26832   2.30250   2.33226
 Alpha virt. eigenvalues --    2.40885   2.41959   2.42971   2.45023   2.45998
 Alpha virt. eigenvalues --    2.50465   2.57410   2.60351   2.62113   2.63299
 Alpha virt. eigenvalues --    2.64807   2.68200   2.68414   2.70945   2.72857
 Alpha virt. eigenvalues --    2.77166   2.80471   2.83061   2.83908   2.86487
 Alpha virt. eigenvalues --    2.90093   2.91215   2.92073   2.93903   2.94572
 Alpha virt. eigenvalues --    3.00437   3.14194   3.46717   3.48532   3.52766
 Alpha virt. eigenvalues --    3.56681   3.62487   3.71052   4.09545   4.13284
 Alpha virt. eigenvalues --    4.19211  30.72721
          Condensed to atoms (all electrons):
               1          2          3          4          5          6
     1  Zr  10.565571   0.039602  -0.000056  -0.026151  -0.086048  -0.015149
     2  Si   0.039602  12.894596  -0.540682  -0.137263  -0.142539   0.002732
     3  O   -0.000056  -0.540682   8.784689   0.108601   0.272230   0.078412
     4  O   -0.026151  -0.137263   0.108601   8.656139  -0.016998   0.049559
     5  O   -0.086048  -0.142539   0.272230  -0.016998   8.573427  -0.016086
     6  O   -0.015149   0.002732   0.078412   0.049559  -0.016086   8.554854
     7  H   -0.004900   0.027405   0.002804  -0.005577   0.237953   0.006809
     8  H    0.003073   0.054080  -0.021177   0.006075  -0.003887   0.235373
     9  H   -0.002095   0.035715   0.007024   0.226399  -0.003873  -0.002766
    10  O    0.017867  -0.001868  -0.015077   0.000406   0.001146   0.000066
    11  H   -0.086294  -0.000100  -0.000857  -0.000001   0.000003  -0.000001
    12  O    0.055159  -0.012122  -0.030485   0.002549   0.000340   0.000443
    13  H   -0.083598   0.000445  -0.000151   0.000129   0.000006   0.000000
    14  O    0.011579   0.001815  -0.030040  -0.000288   0.001062  -0.001663
    15  H   -0.089025   0.000240  -0.000072   0.000043   0.000004   0.000091
               7          8          9         10         11         12
     1  Zr  -0.004900   0.003073  -0.002095   0.017867  -0.086294   0.055159
     2  Si   0.027405   0.054080   0.035715  -0.001868  -0.000100  -0.012122
     3  O    0.002804  -0.021177   0.007024  -0.015077  -0.000857  -0.030485
     4  O   -0.005577   0.006075   0.226399   0.000406  -0.000001   0.002549
     5  O    0.237953  -0.003887  -0.003873   0.001146   0.000003   0.000340
     6  O    0.006809   0.235373  -0.002766   0.000066  -0.000001   0.000443
     7  H    0.368731   0.000057   0.000058  -0.000004  -0.000000  -0.000010
     8  H    0.000057   0.358473   0.000028  -0.000013  -0.000000  -0.000008
     9  H    0.000058   0.000028   0.353705  -0.000004  -0.000000  -0.000086
    10  O   -0.000004  -0.000013  -0.000004   8.595928   0.331117  -0.032102
    11  H   -0.000000  -0.000000  -0.000000   0.331117   0.379274  -0.000920
    12  O   -0.000010  -0.000008  -0.000086  -0.032102  -0.000920   8.557797
    13  H   -0.000000  -0.000000   0.000001   0.000027  -0.000003   0.327576
    14  O    0.000005   0.000058   0.000138  -0.036386  -0.001276  -0.036068
    15  H   -0.000000  -0.000000  -0.000001  -0.000691  -0.000007  -0.000957
              13         14         15
     1  Zr  -0.083598   0.011579  -0.089025
     2  Si   0.000445   0.001815   0.000240
     3  O   -0.000151  -0.030040  -0.000072
     4  O    0.000129  -0.000288   0.000043
     5  O    0.000006   0.001062   0.000004
     6  O    0.000000  -0.001663   0.000091
     7  H   -0.000000   0.000005  -0.000000
     8  H   -0.000000   0.000058  -0.000000
     9  H    0.000001   0.000138  -0.000001
    10  O    0.000027  -0.036386  -0.000691
    11  H   -0.000003  -0.001276  -0.000007
    12  O    0.327576  -0.036068  -0.000957
    13  H    0.377872  -0.001916  -0.000013
    14  O   -0.001916   8.620319   0.330803
    15  H   -0.000013   0.330803   0.379123
 Mulliken charges:
               1
     1  Zr   1.700466
     2  Si   1.777944
     3  O   -0.615163
     4  O   -0.863621
     5  O   -0.816739
     6  O   -0.892673
     7  H    0.366671
     8  H    0.367869
     9  H    0.385757
    10  O   -0.860412
    11  H    0.379065
    12  O   -0.831106
    13  H    0.379624
    14  O   -0.858143
    15  H    0.380462
 Sum of Mulliken charges =  -0.00000
 Mulliken charges with hydrogens summed into heavy atoms:
               1
     1  Zr   1.700466
     2  Si   1.777944
     3  O   -0.615163
     4  O   -0.477864
     5  O   -0.450069
     6  O   -0.524804
    10  O   -0.481347
    12  O   -0.451482
    14  O   -0.477681
 Electronic spatial extent (au):  <R**2>=           2132.2687
 Charge=              0.0000 electrons
 Dipole moment (field-independent basis, Debye):
    X=             -1.2934    Y=             -0.0119    Z=              0.3573  Tot=              1.3419
 Quadrupole moment (field-independent basis, Debye-Ang):
   XX=            -69.9635   YY=            -67.7183   ZZ=            -68.0971
   XY=             -0.4106   XZ=              0.3952   YZ=             -1.1493
 Traceless Quadrupole moment (field-independent basis, Debye-Ang):
   XX=             -1.3705   YY=              0.8746   ZZ=              0.4959
   XY=             -0.4106   XZ=              0.3952   YZ=             -1.1493
 Octapole moment (field-independent basis, Debye-Ang**2):
  XXX=            -58.1718  YYY=             -9.2198  ZZZ=              8.9399  XYY=            -18.8429
  XXY=             -3.7304  XXZ=            -12.6668  XZZ=            -14.4210  YZZ=              4.0833
  YYZ=              3.6378  XYZ=             -1.3271
 Hexadecapole moment (field-independent basis, Debye-Ang**3):
 XXXX=          -1788.4401 YYYY=           -309.2216 ZZZZ=           -323.1182 XXXY=           -100.0868
 XXXZ=             26.5646 YYYX=             55.0041 YYYZ=              7.2280 ZZZX=            -54.8682
 ZZZY=             -1.1147 XXYY=           -348.8254 XXZZ=           -277.6992 YYZZ=           -135.1951
 XXYZ=            -48.3563 YYXZ=             49.0082 ZZXY=            -25.0372
 N-N= 6.405326282385D+02 E-N=-3.318599980198D+03  KE= 8.306813268029D+02
 1\1\GINC-GRA598\FOpt\RB3LYP\Gen\H6O7Si1Zr1\SARASHS\16-Jul-2020\0\\#n B
 3LYP/Gen Pseudo=cards EmpiricalDispersion=GD3 Opt=modredundant\\Title\
 \0,1\Zr,1.3879241053,-0.0017943392,-0.1364732141\Si,-1.9622913028,0.57
 90449653,0.0078809638\O,-0.5808135615,-0.2374025675,-0.2785436267\O,-1
 .558867764,1.7909952271,1.0635908344\O,-3.1213039801,-0.4608802799,0.5
 834020362\O,-2.6409535223,1.3126076683,-1.3106546241\H,-2.7974860633,-
 1.2149214697,1.0883579329\H,-3.2604007509,0.7731367694,-1.8147465822\H
 ,-2.1812365045,2.5234144317,1.1317181167\O,2.2132992892,-1.4905288138,
 -1.0622181574\H,2.814218237,-2.1462649183,-1.4159551821\O,1.8944879756
 ,-0.032665202,1.7318725159\H,2.1012149169,0.2285857016,2.6296241549\O,
 1.8898462562,1.6717123884,-0.9549636808\H,2.1029326694,2.5154404386,-1
 .3530614873\\Version=ES64L-G16RevB.01\State=1-A\HF=-867.1272873\RMSD=4
 .961e-09\RMSF=3.843e-04\Dipole=0.5133361,-0.0496972,0.1127998\Quadrupo
 le=-1.0878602,1.1604062,-0.072546,0.0580342,-0.0328607,0.660391\PG=C01
  [X(H6O7Si1Zr1)]\\@


 PATIENCE IS THE ABILITY TO IDLE YOUR MOTOR WHEN
 YOU FEEL LIKE STRIPPING YOUR GEARS.
 Job cpu time:       0 days  5 hours 10 minutes 16.7 seconds.
 Elapsed time:       0 days  0 hours 22 minutes 21.6 seconds.
 File lengths (MBytes):  RWF=     48 Int=      0 D2E=      0 Chk=      6 Scr=      1
 Normal termination of Gaussian 16 at Thu Jul 16 15:34:00 2020.
