 Entering Gaussian System, Link 0=g16
 Initial command:
 /opt/software/gaussian/g16.b01/l1.exe "/localscratch/sarashs.37146734.0/Gau-3638.inp" -scrdir="/localscratch/sarashs.37146734.0/"
 Entering Link 1 = /opt/software/gaussian/g16.b01/l1.exe PID=      3639.
  
 Copyright (c) 1988-2017, Gaussian, Inc.  All Rights Reserved.
  
 This is part of the Gaussian(R) 16 program.  It is based on
 the Gaussian(R) 09 system (copyright 2009, Gaussian, Inc.),
 the Gaussian(R) 03 system (copyright 2003, Gaussian, Inc.),
 the Gaussian(R) 98 system (copyright 1998, Gaussian, Inc.),
 the Gaussian(R) 94 system (copyright 1995, Gaussian, Inc.),
 the Gaussian 92(TM) system (copyright 1992, Gaussian, Inc.),
 the Gaussian 90(TM) system (copyright 1990, Gaussian, Inc.),
 the Gaussian 88(TM) system (copyright 1988, Gaussian, Inc.),
 the Gaussian 86(TM) system (copyright 1986, Carnegie Mellon
 University), and the Gaussian 82(TM) system (copyright 1983,
 Carnegie Mellon University). Gaussian is a federally registered
 trademark of Gaussian, Inc.
  
 This software contains proprietary and confidential information,
 including trade secrets, belonging to Gaussian, Inc.
  
 This software is provided under written license and may be
 used, copied, transmitted, or stored only in accord with that
 written license.
  
 The following legend is applicable only to US Government
 contracts under FAR:
  
                    RESTRICTED RIGHTS LEGEND
  
 Use, reproduction and disclosure by the US Government is
 subject to restrictions as set forth in subparagraphs (a)
 and (c) of the Commercial Computer Software - Restricted
 Rights clause in FAR 52.227-19.
  
 Gaussian, Inc.
 340 Quinnipiac St., Bldg. 40, Wallingford CT 06492
  
  
 ---------------------------------------------------------------
 Warning -- This program may not be used in any manner that
 competes with the business of Gaussian, Inc. or will provide
 assistance to any competitor of Gaussian, Inc.  The licensee
 of this program is prohibited from giving any competitor of
 Gaussian, Inc. access to this program.  By using this program,
 the user acknowledges that Gaussian, Inc. is engaged in the
 business of creating and licensing software in the field of
 computational chemistry and represents and warrants to the
 licensee that it is not a competitor of Gaussian, Inc. and that
 it will not use this program in any manner prohibited above.
 ---------------------------------------------------------------
  

 Cite this work as:
 Gaussian 16, Revision B.01,
 M. J. Frisch, G. W. Trucks, H. B. Schlegel, G. E. Scuseria, 
 M. A. Robb, J. R. Cheeseman, G. Scalmani, V. Barone, 
 G. A. Petersson, H. Nakatsuji, X. Li, M. Caricato, A. V. Marenich, 
 J. Bloino, B. G. Janesko, R. Gomperts, B. Mennucci, H. P. Hratchian, 
 J. V. Ortiz, A. F. Izmaylov, J. L. Sonnenberg, D. Williams-Young, 
 F. Ding, F. Lipparini, F. Egidi, J. Goings, B. Peng, A. Petrone, 
 T. Henderson, D. Ranasinghe, V. G. Zakrzewski, J. Gao, N. Rega, 
 G. Zheng, W. Liang, M. Hada, M. Ehara, K. Toyota, R. Fukuda, 
 J. Hasegawa, M. Ishida, T. Nakajima, Y. Honda, O. Kitao, H. Nakai, 
 T. Vreven, K. Throssell, J. A. Montgomery, Jr., J. E. Peralta, 
 F. Ogliaro, M. J. Bearpark, J. J. Heyd, E. N. Brothers, K. N. Kudin, 
 V. N. Staroverov, T. A. Keith, R. Kobayashi, J. Normand, 
 K. Raghavachari, A. P. Rendell, J. C. Burant, S. S. Iyengar, 
 J. Tomasi, M. Cossi, J. M. Millam, M. Klene, C. Adamo, R. Cammi, 
 J. W. Ochterski, R. L. Martin, K. Morokuma, O. Farkas, 
 J. B. Foresman, and D. J. Fox, Gaussian, Inc., Wallingford CT, 2016.
 
 ******************************************
 Gaussian 16:  ES64L-G16RevB.01 20-Dec-2017
                11-Aug-2020 
 ******************************************
 %NProcShared=16
 Will use up to   16 processors via shared memory.
 ------------------------------------------------------------------
 #n B3LYP/Gen Pseudo=cards EmpiricalDispersion=GD3 Opt=modredundant
 ------------------------------------------------------------------
 1/18=120,19=15,26=3,38=1/1,3;
 2/9=110,12=2,17=6,18=5,40=1/2;
 3/5=7,11=2,16=1,17=8,25=1,30=1,71=1,74=-5,124=31/1,2,3;
 4//1;
 5/5=2,38=5/2;
 6/7=2,8=2,9=2,10=2,28=1/1;
 7//1,2,3,16;
 1/18=20,19=15,26=3/3(2);
 2/9=110/2;
 99//99;
 2/9=110/2;
 3/5=7,6=1,11=2,16=1,17=8,25=1,30=1,71=1,74=-5,82=7,124=31/1,2,3;
 4/5=5,16=3,69=1/1;
 5/5=2,38=5/2;
 7//1,2,3,16;
 1/18=20,19=15,26=3/3(-5);
 2/9=110/2;
 6/7=2,8=2,9=2,10=2,19=2,28=1/1;
 99/9=1/99;
 -----
 Title
 -----
 Symbolic Z-matrix:
 Charge =  0 Multiplicity = 1
 Zr                    1.39034  -0.00177  -0.01073 
 Si                   -2.20392  -0.04931   0.01882 
 O                    -0.57608  -0.07401   0.01167 
 O                    -2.64603   1.39336   0.69146 
 O                    -2.78344  -1.3753    0.83717 
 O                    -2.90496  -0.12758  -1.47749 
 H                    -2.27706  -1.65353   1.60833 
 H                    -3.07232  -1.01565  -1.8124 
 H                    -3.56896   1.64578   0.57701 
 O                     2.02631  -0.89592  -1.60523 
 H                     2.43313  -1.22024  -2.40844 
 O                     2.01869  -0.92466   1.57573 
 H                     2.5428   -1.29373   2.28672 
 O                     1.983     1.83591   0.00127 
 H                     2.18026   2.77217   0.02392 
 
 The following ModRedundant input section has been read:
 A       1       2       3 F                                                   
 

 GradGradGradGradGradGradGradGradGradGradGradGradGradGradGradGradGradGrad
 Berny optimization.
 Initialization pass.
                           ----------------------------
                           !    Initial Parameters    !
                           ! (Angstroms and Degrees)  !
 --------------------------                            --------------------------
 ! Name  Definition              Value          Derivative Info.                !
 --------------------------------------------------------------------------------
 ! R1    R(1,3)                  1.9679         estimate D2E/DX2                !
 ! R2    R(1,10)                 1.9356         estimate D2E/DX2                !
 ! R3    R(1,12)                 1.9399         estimate D2E/DX2                !
 ! R4    R(1,14)                 1.9309         estimate D2E/DX2                !
 ! R5    R(2,3)                  1.628          estimate D2E/DX2                !
 ! R6    R(2,4)                  1.652          estimate D2E/DX2                !
 ! R7    R(2,5)                  1.6625         estimate D2E/DX2                !
 ! R8    R(2,6)                  1.6542         estimate D2E/DX2                !
 ! R9    R(4,9)                  0.9636         estimate D2E/DX2                !
 ! R10   R(5,7)                  0.9636         estimate D2E/DX2                !
 ! R11   R(6,8)                  0.9638         estimate D2E/DX2                !
 ! R12   R(10,11)                0.957          estimate D2E/DX2                !
 ! R13   R(12,13)                0.9573         estimate D2E/DX2                !
 ! R14   R(14,15)                0.9571         estimate D2E/DX2                !
 ! A1    A(3,1,10)             108.7081         estimate D2E/DX2                !
 ! A2    A(3,1,12)             107.2708         estimate D2E/DX2                !
 ! A3    A(3,1,14)             109.9726         estimate D2E/DX2                !
 ! A4    A(10,1,12)            110.334          estimate D2E/DX2                !
 ! A5    A(10,1,14)            110.116          estimate D2E/DX2                !
 ! A6    A(12,1,14)            110.3809         estimate D2E/DX2                !
 ! A7    A(1,2,3)                1.6418         Frozen                          !
 ! A8    A(3,2,4)              106.4166         estimate D2E/DX2                !
 ! A9    A(3,2,5)              109.7921         estimate D2E/DX2                !
 ! A10   A(3,2,6)              114.7739         estimate D2E/DX2                !
 ! A11   A(4,2,5)              113.7541         estimate D2E/DX2                !
 ! A12   A(4,2,6)              107.2292         estimate D2E/DX2                !
 ! A13   A(5,2,6)              105.0576         estimate D2E/DX2                !
 ! A14   A(2,4,9)              115.8934         estimate D2E/DX2                !
 ! A15   A(2,5,7)              116.1714         estimate D2E/DX2                !
 ! A16   A(2,6,8)              115.5637         estimate D2E/DX2                !
 ! A17   L(1,3,2,7,-1)         182.3726         estimate D2E/DX2                !
 ! A18   L(1,10,11,8,-1)       186.0007         estimate D2E/DX2                !
 ! A19   L(1,12,13,7,-1)       194.5048         estimate D2E/DX2                !
 ! A20   L(1,14,15,9,-1)       173.9492         estimate D2E/DX2                !
 ! A21   L(1,3,2,7,-2)         177.6731         estimate D2E/DX2                !
 ! A22   L(1,10,11,8,-2)       172.8585         estimate D2E/DX2                !
 ! A23   L(1,12,13,7,-2)       180.2581         estimate D2E/DX2                !
 ! A24   L(1,14,15,9,-2)       179.6612         estimate D2E/DX2                !
 ! D1    D(10,1,2,4)          -144.3862         estimate D2E/DX2                !
 ! D2    D(10,1,2,5)            92.0873         estimate D2E/DX2                !
 ! D3    D(10,1,2,6)           -26.9599         estimate D2E/DX2                !
 ! D4    D(12,1,2,4)            95.5342         estimate D2E/DX2                !
 ! D5    D(12,1,2,5)           -27.9924         estimate D2E/DX2                !
 ! D6    D(12,1,2,6)          -147.0396         estimate D2E/DX2                !
 ! D7    D(14,1,2,4)           -24.2618         estimate D2E/DX2                !
 ! D8    D(14,1,2,5)          -147.7884         estimate D2E/DX2                !
 ! D9    D(14,1,2,6)            93.1644         estimate D2E/DX2                !
 ! D10   D(3,2,4,9)            166.0994         estimate D2E/DX2                !
 ! D11   D(5,2,4,9)            -72.8805         estimate D2E/DX2                !
 ! D12   D(6,2,4,9)             42.8188         estimate D2E/DX2                !
 ! D13   D(3,2,5,7)             36.8601         estimate D2E/DX2                !
 ! D14   D(4,2,5,7)            -82.2533         estimate D2E/DX2                !
 ! D15   D(6,2,5,7)            160.7774         estimate D2E/DX2                !
 ! D16   D(3,2,6,8)             88.4121         estimate D2E/DX2                !
 ! D17   D(4,2,6,8)           -153.6178         estimate D2E/DX2                !
 ! D18   D(5,2,6,8)            -32.2749         estimate D2E/DX2                !
 --------------------------------------------------------------------------------
 Trust Radius=3.00D-01 FncErr=1.00D-07 GrdErr=1.00D-06 EigMax=2.50D+02 EigMin=1.00D-04
 Number of steps in this run=     66 maximum allowed number of steps=    100.
 GradGradGradGradGradGradGradGradGradGradGradGradGradGradGradGradGradGrad

                          Input orientation:                          
 ---------------------------------------------------------------------
 Center     Atomic      Atomic             Coordinates (Angstroms)
 Number     Number       Type             X           Y           Z
 ---------------------------------------------------------------------
      1         40           0        1.390340   -0.001770   -0.010730
      2         14           0       -2.203920   -0.049310    0.018820
      3          8           0       -0.576080   -0.074010    0.011670
      4          8           0       -2.646030    1.393360    0.691460
      5          8           0       -2.783440   -1.375300    0.837170
      6          8           0       -2.904960   -0.127580   -1.477490
      7          1           0       -2.277060   -1.653530    1.608330
      8          1           0       -3.072320   -1.015650   -1.812400
      9          1           0       -3.568960    1.645780    0.577010
     10          8           0        2.026310   -0.895920   -1.605230
     11          1           0        2.433130   -1.220240   -2.408440
     12          8           0        2.018690   -0.924660    1.575730
     13          1           0        2.542800   -1.293730    2.286720
     14          8           0        1.983000    1.835910    0.001270
     15          1           0        2.180260    2.772170    0.023920
 ---------------------------------------------------------------------
                    Distance matrix (angstroms):
                    1          2          3          4          5
     1  Zr   0.000000
     2  Si   3.594696   0.000000
     3  O    1.967874   1.628043   0.000000
     4  O    4.328018   1.652030   2.626782   0.000000
     5  O    4.475037   1.662465   2.692071   2.775895   0.000000
     6  O    4.540574   1.654245   2.764805   2.661700   2.632342
     7  H    4.335838   2.259516   2.817364   3.203175   0.963598
     8  H    4.918262   2.245284   3.231893   3.500624   2.689428
     9  H    5.258756   2.246829   3.497802   0.963646   3.132355
    10  O    1.935560   4.609678   3.172118   5.687385   5.415609
    11  H    2.884631   5.363292   4.028166   6.499088   6.145782
    12  O    1.939950   4.584827   3.146859   5.283442   4.879447
    13  H    2.876734   5.405858   4.048578   6.057166   5.520569
    14  O    1.930921   4.591804   3.193242   4.701078   5.807715
    15  H    2.884427   5.213618   3.962108   5.063576   6.519294
                    6          7          8          9         10
     6  O    0.000000
     7  H    3.499295   0.000000
     8  H    0.963765   3.569415   0.000000
     9  H    2.794042   3.690267   3.610975   0.000000
    10  O    4.992403   5.424015   5.104242   6.521461   0.000000
    11  H    5.527728   6.205487   5.541399   7.290546   0.956991
    12  O    5.848061   4.357268   6.116052   6.231086   3.181099
    13  H    6.723635   4.880647   6.957707   6.994100   3.946174
    14  O    5.471213   5.736457   6.080876   5.584970   3.169482
    15  H    6.043364   6.478030   6.731214   5.884573   4.016555
                   11         12         13         14         15
    11  H    0.000000
    12  O    4.016558   0.000000
    13  H    4.697016   0.957293   0.000000
    14  O    3.917827   3.178198   3.915521   0.000000
    15  H    4.681843   4.012577   4.667252   0.957083   0.000000
 Stoichiometry    H6O7SiZr
 Framework group  C1[X(H6O7SiZr)]
 Deg. of freedom    39
 Full point group                 C1      NOp   1
 Largest Abelian subgroup         C1      NOp   1
 Largest concise Abelian subgroup C1      NOp   1
                         Standard orientation:                         
 ---------------------------------------------------------------------
 Center     Atomic      Atomic             Coordinates (Angstroms)
 Number     Number       Type             X           Y           Z
 ---------------------------------------------------------------------
      1         40           0       -1.391105    0.000077    0.010949
      2         14           0        2.203509    0.011637   -0.010388
      3          8           0        0.576278   -0.039723   -0.007655
      4          8           0        2.623474    1.471350   -0.660058
      5          8           0        2.806461   -1.292175   -0.847234
      6          8           0        2.902386   -0.077837    1.486305
      7          1           0        2.306424   -1.566919   -1.623764
      8          1           0        3.083495   -0.968028    1.808176
      9          1           0        3.541895    1.737032   -0.539516
     10          8           0       -2.015935   -0.928376    1.590175
     11          1           0       -2.419193   -1.271417    2.387382
     12          8           0       -2.000731   -0.908810   -1.590827
     13          1           0       -2.517145   -1.275571   -2.308611
     14          8           0       -2.013706    1.827814    0.025239
     15          1           0       -2.226197    2.760966    0.016245
 ---------------------------------------------------------------------
 Rotational constants (GHZ):           1.6229353           0.4697918           0.4666604
 General basis read from cards:  (5D, 7F)
 ======================================================================================================
                                       Pseudopotential Parameters
 ======================================================================================================
  Center     Atomic      Valence      Angular      Power
  Number     Number     Electrons     Momentum     of R      Exponent        Coefficient   SO-Coeffient
 ======================================================================================================
    1         40           12
                                      G and up 
                                                     2        1.0000000        0.00000000    0.00000000
                                      S - G
                                                     2        8.6365280      150.24299400    0.00000000
                                                     2        3.7176390       18.78003600    0.00000000
                                      P - G
                                                     2        7.6267280       33.19279100    0.00000000
                                                     2        7.4532070       66.38903900    0.00000000
                                                     2        3.3583890        4.62072600    0.00000000
                                                     2        3.2297380        9.26027000    0.00000000
                                      D - G
                                                     2        5.9380860       13.99338300    0.00000000
                                                     2        5.8255440       20.99588200    0.00000000
                                                     2        2.2050190        2.28516600    0.00000000
                                                     2        2.2062920        3.44126000    0.00000000
                                      F - G
                                                     2        4.8002150       -5.23932000    0.00000000
                                                     2        4.7989920       -6.98742400    0.00000000
    2         14
                                   No pseudopotential on this center.
    3          8
                                   No pseudopotential on this center.
    4          8
                                   No pseudopotential on this center.
    5          8
                                   No pseudopotential on this center.
    6          8
                                   No pseudopotential on this center.
    7          1
                                   No pseudopotential on this center.
    8          1
                                   No pseudopotential on this center.
    9          1
                                   No pseudopotential on this center.
   10          8
                                   No pseudopotential on this center.
   11          1
                                   No pseudopotential on this center.
   12          8
                                   No pseudopotential on this center.
   13          1
                                   No pseudopotential on this center.
   14          8
                                   No pseudopotential on this center.
   15          1
                                   No pseudopotential on this center.
 ======================================================================================================
 There are   300 symmetry adapted cartesian basis functions of A   symmetry.
 There are   266 symmetry adapted basis functions of A   symmetry.
   266 basis functions,   576 primitive gaussians,   300 cartesian basis functions
    44 alpha electrons       44 beta electrons
       nuclear repulsion energy       630.4827763040 Hartrees.
 NAtoms=   15 NActive=   15 NUniq=   15 SFac= 1.00D+00 NAtFMM=   60 NAOKFM=F Big=F
 Integral buffers will be    131072 words long.
 Raffenetti 2 integral format.
 Two-electron integral symmetry is turned on.
 Nuclear repulsion after empirical dispersion term =      630.4725780444 Hartrees.
 One-electron integrals computed using PRISM.
 PrsmSu:  requested number of processors reduced to:   4 ShMem   1 Linda.
   1 Symmetry operations used in ECPInt.
 ECPInt:  NShTT=    3321 NPrTT=   20810 LenC2=    3166 LenP2D=   14964.
 LDataN:  DoStor=T MaxTD1= 8 Len=  415
 NBasis=   266 RedAO= T EigKep=  1.03D-04  NBF=   266
 NBsUse=   266 1.00D-06 EigRej= -1.00D+00 NBFU=   266
 Defaulting to unpruned grid for atomic number  40.
 ExpMin= 1.01D-02 ExpMax= 1.61D+04 ExpMxC= 2.43D+03 IAcc=3 IRadAn=         5 AccDes= 0.00D+00
 Harris functional with IExCor=  402 and IRadAn=       5 diagonalized for initial guess.
 HarFok:  IExCor=  402 AccDes= 0.00D+00 IRadAn=         5 IDoV= 1 UseB2=F ITyADJ=14
 ICtDFT=  3500011 ScaDFX=  1.000000  1.000000  1.000000  1.000000
 Defaulting to unpruned grid for atomic number  40.
 FoFCou: FMM=F IPFlag=           0 FMFlag=      100000 FMFlg1=           0
         NFxFlg=           0 DoJE=T BraDBF=F KetDBF=T FulRan=T
         wScrn=  0.000000 ICntrl=       500 IOpCl=  0 I1Cent=   200000004 NGrid=           0
         NMat0=    1 NMatS0=      1 NMatT0=    0 NMatD0=    1 NMtDS0=    0 NMtDT0=    0
 Petite list used in FoFCou.
 Requested convergence on RMS density matrix=1.00D-08 within 128 cycles.
 Requested convergence on MAX density matrix=1.00D-06.
 Requested convergence on             energy=1.00D-06.
 No special actions if energy rises.
 Defaulting to unpruned grid for atomic number  40.
 Defaulting to unpruned grid for atomic number  40.
 Defaulting to unpruned grid for atomic number  40.
 Defaulting to unpruned grid for atomic number  40.
 Defaulting to unpruned grid for atomic number  40.
 Defaulting to unpruned grid for atomic number  40.
 Defaulting to unpruned grid for atomic number  40.
 Defaulting to unpruned grid for atomic number  40.
 Defaulting to unpruned grid for atomic number  40.
 Defaulting to unpruned grid for atomic number  40.
 Defaulting to unpruned grid for atomic number  40.
 Defaulting to unpruned grid for atomic number  40.
 Defaulting to unpruned grid for atomic number  40.
 Defaulting to unpruned grid for atomic number  40.
 Defaulting to unpruned grid for atomic number  40.
 Defaulting to unpruned grid for atomic number  40.
 SCF Done:  E(RB3LYP) =  -867.127740225     A.U. after   13 cycles
            NFock= 13  Conv=0.54D-08     -V/T= 2.0439

 **********************************************************************

            Population analysis using the SCF Density.

 **********************************************************************

 Orbital symmetries:
       Occupied  (A) (A) (A) (A) (A) (A) (A) (A) (A) (A) (A) (A)
                 (A) (A) (A) (A) (A) (A) (A) (A) (A) (A) (A) (A)
                 (A) (A) (A) (A) (A) (A) (A) (A) (A) (A) (A) (A)
                 (A) (A) (A) (A) (A) (A) (A) (A)
       Virtual   (A) (A) (A) (A) (A) (A) (A) (A) (A) (A) (A) (A)
                 (A) (A) (A) (A) (A) (A) (A) (A) (A) (A) (A) (A)
                 (A) (A) (A) (A) (A) (A) (A) (A) (A) (A) (A) (A)
                 (A) (A) (A) (A) (A) (A) (A) (A) (A) (A) (A) (A)
                 (A) (A) (A) (A) (A) (A) (A) (A) (A) (A) (A) (A)
                 (A) (A) (A) (A) (A) (A) (A) (A) (A) (A) (A) (A)
                 (A) (A) (A) (A) (A) (A) (A) (A) (A) (A) (A) (A)
                 (A) (A) (A) (A) (A) (A) (A) (A) (A) (A) (A) (A)
                 (A) (A) (A) (A) (A) (A) (A) (A) (A) (A) (A) (A)
                 (A) (A) (A) (A) (A) (A) (A) (A) (A) (A) (A) (A)
                 (A) (A) (A) (A) (A) (A) (A) (A) (A) (A) (A) (A)
                 (A) (A) (A) (A) (A) (A) (A) (A) (A) (A) (A) (A)
                 (A) (A) (A) (A) (A) (A) (A) (A) (A) (A) (A) (A)
                 (A) (A) (A) (A) (A) (A) (A) (A) (A) (A) (A) (A)
                 (A) (A) (A) (A) (A) (A) (A) (A) (A) (A) (A) (A)
                 (A) (A) (A) (A) (A) (A) (A) (A) (A) (A) (A) (A)
                 (A) (A) (A) (A) (A) (A) (A) (A) (A) (A) (A) (A)
                 (A) (A) (A) (A) (A) (A) (A) (A) (A) (A) (A) (A)
                 (A) (A) (A) (A) (A) (A)
 The electronic state is 1-A.
 Alpha  occ. eigenvalues --  -66.19981 -19.15208 -19.15151 -19.14884 -19.14426
 Alpha  occ. eigenvalues --  -19.14381 -19.14368 -19.13271  -5.34074  -3.70041
 Alpha  occ. eigenvalues --   -3.70035  -3.69993  -2.11308  -1.27588  -1.27519
 Alpha  occ. eigenvalues --   -1.27223  -1.02789  -0.99593  -0.99421  -0.96715
 Alpha  occ. eigenvalues --   -0.95495  -0.95480  -0.94158  -0.57487  -0.52284
 Alpha  occ. eigenvalues --   -0.51577  -0.50406  -0.49764  -0.49678  -0.45725
 Alpha  occ. eigenvalues --   -0.39647  -0.37889  -0.37273  -0.36109  -0.35698
 Alpha  occ. eigenvalues --   -0.34608  -0.34308  -0.33894  -0.33031  -0.32859
 Alpha  occ. eigenvalues --   -0.32100  -0.31381  -0.31286  -0.30648
 Alpha virt. eigenvalues --   -0.03004  -0.01297  -0.00844  -0.00604   0.00180
 Alpha virt. eigenvalues --    0.00274   0.01192   0.01341   0.01641   0.02153
 Alpha virt. eigenvalues --    0.02374   0.02904   0.03245   0.03281   0.03303
 Alpha virt. eigenvalues --    0.04184   0.04468   0.04592   0.05101   0.05797
 Alpha virt. eigenvalues --    0.06921   0.09004   0.09550   0.09672   0.09991
 Alpha virt. eigenvalues --    0.10218   0.11064   0.12379   0.13542   0.13865
 Alpha virt. eigenvalues --    0.14861   0.15336   0.15916   0.16369   0.17628
 Alpha virt. eigenvalues --    0.18199   0.18561   0.18638   0.19227   0.19465
 Alpha virt. eigenvalues --    0.20623   0.20718   0.20923   0.21921   0.22132
 Alpha virt. eigenvalues --    0.23087   0.24249   0.24955   0.26218   0.26301
 Alpha virt. eigenvalues --    0.27099   0.27593   0.28062   0.28222   0.28818
 Alpha virt. eigenvalues --    0.29168   0.29322   0.29873   0.30155   0.30283
 Alpha virt. eigenvalues --    0.31111   0.32370   0.33376   0.33654   0.34779
 Alpha virt. eigenvalues --    0.35549   0.36198   0.37497   0.38183   0.40496
 Alpha virt. eigenvalues --    0.42200   0.43644   0.44698   0.46837   0.47456
 Alpha virt. eigenvalues --    0.47663   0.49365   0.50147   0.51511   0.51884
 Alpha virt. eigenvalues --    0.53394   0.57615   0.58070   0.60503   0.60839
 Alpha virt. eigenvalues --    0.61036   0.62496   0.62828   0.64436   0.64707
 Alpha virt. eigenvalues --    0.65402   0.67720   0.71489   0.72220   0.73071
 Alpha virt. eigenvalues --    0.75578   0.76116   0.76695   0.77910   0.82275
 Alpha virt. eigenvalues --    0.85021   0.85955   0.96302   0.97984   0.99369
 Alpha virt. eigenvalues --    1.01466   1.02849   1.04923   1.05615   1.06464
 Alpha virt. eigenvalues --    1.07431   1.18639   1.19705   1.20443   1.21307
 Alpha virt. eigenvalues --    1.21688   1.22554   1.23224   1.23834   1.24665
 Alpha virt. eigenvalues --    1.25917   1.26290   1.27177   1.27771   1.28540
 Alpha virt. eigenvalues --    1.28961   1.30051   1.30727   1.31993   1.32571
 Alpha virt. eigenvalues --    1.33340   1.37097   1.42621   1.43655   1.46156
 Alpha virt. eigenvalues --    1.49716   1.53265   1.55913   1.59746   1.60716
 Alpha virt. eigenvalues --    1.62948   1.63489   1.63717   1.64752   1.67980
 Alpha virt. eigenvalues --    1.68765   1.71349   1.72231   1.72586   1.72711
 Alpha virt. eigenvalues --    1.73640   1.74651   1.75562   1.76444   1.77673
 Alpha virt. eigenvalues --    1.78860   1.80416   1.82741   1.83559   1.84313
 Alpha virt. eigenvalues --    1.85898   1.87814   1.90202   1.90599   1.91791
 Alpha virt. eigenvalues --    1.92128   1.93558   1.94767   1.96588   1.96983
 Alpha virt. eigenvalues --    1.98908   1.99359   2.01754   2.02453   2.05737
 Alpha virt. eigenvalues --    2.06935   2.07649   2.09975   2.14365   2.18113
 Alpha virt. eigenvalues --    2.18783   2.20892   2.22069   2.28130   2.32506
 Alpha virt. eigenvalues --    2.34951   2.41936   2.42569   2.43618   2.44842
 Alpha virt. eigenvalues --    2.51937   2.57516   2.58760   2.62705   2.63482
 Alpha virt. eigenvalues --    2.64393   2.66445   2.68033   2.69178   2.73215
 Alpha virt. eigenvalues --    2.77714   2.80210   2.80524   2.83683   2.87314
 Alpha virt. eigenvalues --    2.90132   2.90857   2.91157   2.92499   2.93743
 Alpha virt. eigenvalues --    3.02375   3.19963   3.47769   3.48015   3.52552
 Alpha virt. eigenvalues --    3.53361   3.55961   3.97212   4.10993   4.14995
 Alpha virt. eigenvalues --    4.17712  31.16219
          Condensed to atoms (all electrons):
               1          2          3          4          5          6
     1  Zr  10.423385   0.108046  -0.015704  -0.012523  -0.055726  -0.039500
     2  Si   0.108046  12.903058  -0.633598  -0.084656  -0.097394  -0.014077
     3  O   -0.015704  -0.633598   8.903683   0.141321   0.241555   0.107165
     4  O   -0.012523  -0.084656   0.141321   8.572192  -0.028401   0.015324
     5  O   -0.055726  -0.097394   0.241555  -0.028401   8.502457   0.035678
     6  O   -0.039500  -0.014077   0.107165   0.015324   0.035678   8.525892
     7  H   -0.002087   0.028189  -0.003919  -0.006907   0.244353   0.006515
     8  H    0.001191   0.064601  -0.022331   0.007036  -0.007197   0.231576
     9  H   -0.002307   0.038586   0.008305   0.221034  -0.005732  -0.005930
    10  O    0.038831  -0.019912  -0.022261   0.000730   0.000577   0.001889
    11  H   -0.087294   0.000902  -0.001023   0.000000   0.000001   0.000016
    12  O    0.055059  -0.020172  -0.021174   0.000274   0.002587   0.000614
    13  H   -0.083985   0.000886  -0.000912  -0.000003   0.000003   0.000001
    14  O    0.032719  -0.027946  -0.027598   0.002546   0.001012   0.000150
    15  H   -0.089852   0.000760  -0.001106   0.000049   0.000003   0.000000
               7          8          9         10         11         12
     1  Zr  -0.002087   0.001191  -0.002307   0.038831  -0.087294   0.055059
     2  Si   0.028189   0.064601   0.038586  -0.019912   0.000902  -0.020172
     3  O   -0.003919  -0.022331   0.008305  -0.022261  -0.001023  -0.021174
     4  O   -0.006907   0.007036   0.221034   0.000730   0.000000   0.000274
     5  O    0.244353  -0.007197  -0.005732   0.000577   0.000001   0.002587
     6  O    0.006515   0.231576  -0.005930   0.001889   0.000016   0.000614
     7  H    0.370377   0.000060   0.000099   0.000017   0.000000  -0.000219
     8  H    0.000060   0.358671   0.000050   0.000029   0.000000  -0.000012
     9  H    0.000099   0.000050   0.372301   0.000001   0.000000  -0.000006
    10  O    0.000017   0.000029   0.000001   8.598348   0.327185  -0.035247
    11  H    0.000000   0.000000   0.000000   0.327185   0.381832  -0.000682
    12  O   -0.000219  -0.000012  -0.000006  -0.035247  -0.000682   8.578056
    13  H    0.000001   0.000000  -0.000000  -0.000978  -0.000008   0.323394
    14  O   -0.000018  -0.000007  -0.000051  -0.034167  -0.001270  -0.035676
    15  H    0.000000  -0.000000  -0.000000  -0.000663  -0.000008  -0.000759
              13         14         15
     1  Zr  -0.083985   0.032719  -0.089852
     2  Si   0.000886  -0.027946   0.000760
     3  O   -0.000912  -0.027598  -0.001106
     4  O   -0.000003   0.002546   0.000049
     5  O    0.000003   0.001012   0.000003
     6  O    0.000001   0.000150   0.000000
     7  H    0.000001  -0.000018   0.000000
     8  H    0.000000  -0.000007  -0.000000
     9  H   -0.000000  -0.000051  -0.000000
    10  O   -0.000978  -0.034167  -0.000663
    11  H   -0.000008  -0.001270  -0.000008
    12  O    0.323394  -0.035676  -0.000759
    13  H    0.381769  -0.001259  -0.000009
    14  O   -0.001259   8.607618   0.331977
    15  H   -0.000009   0.331977   0.379106
 Mulliken charges:
               1
     1  Zr   1.729747
     2  Si   1.752728
     3  O   -0.652403
     4  O   -0.828015
     5  O   -0.833775
     6  O   -0.865312
     7  H    0.363539
     8  H    0.366332
     9  H    0.373652
    10  O   -0.854379
    11  H    0.380350
    12  O   -0.846036
    13  H    0.381101
    14  O   -0.848030
    15  H    0.380502
 Sum of Mulliken charges =  -0.00000
 Mulliken charges with hydrogens summed into heavy atoms:
               1
     1  Zr   1.729747
     2  Si   1.752728
     3  O   -0.652403
     4  O   -0.454363
     5  O   -0.470237
     6  O   -0.498980
    10  O   -0.474029
    12  O   -0.464935
    14  O   -0.467528
 Electronic spatial extent (au):  <R**2>=           2273.0631
 Charge=             -0.0000 electrons
 Dipole moment (field-independent basis, Debye):
    X=             -2.0418    Y=             -0.8625    Z=             -0.3019  Tot=              2.2369
 Quadrupole moment (field-independent basis, Debye-Ang):
   XX=            -68.8240   YY=            -69.1133   ZZ=            -67.9128
   XY=              0.1466   XZ=             -0.2262   YZ=             -0.6210
 Traceless Quadrupole moment (field-independent basis, Debye-Ang):
   XX=             -0.2073   YY=             -0.4966   ZZ=              0.7039
   XY=              0.1466   XZ=             -0.2262   YZ=             -0.6210
 Octapole moment (field-independent basis, Debye-Ang**2):
  XXX=            -43.8596  YYY=             17.4800  ZZZ=             -2.0606  XYY=            -24.4684
  XXY=             10.1162  XXZ=             -0.6470  XZZ=            -31.2753  YZZ=            -25.8542
  YYZ=              2.3945  XYZ=             -7.5336
 Hexadecapole moment (field-independent basis, Debye-Ang**3):
 XXXX=          -1890.0093 YYYY=           -366.3261 ZZZZ=           -345.9739 XXXY=            102.7341
 XXXZ=             12.1718 YYYX=            -38.3330 YYYZ=              4.5369 ZZZX=            -12.7262
 ZZZY=             -2.6154 XXYY=           -340.0767 XXZZ=           -341.4925 YYZZ=           -113.6987
 XXYZ=            -35.7062 YYXZ=              8.8052 ZZXY=              6.4766
 N-N= 6.304725780444D+02 E-N=-3.298450810772D+03  KE= 8.306830765704D+02
 PrsmSu:  requested number of processors reduced to:   2 ShMem   1 Linda.
 PrsmSu:  requested number of processors reduced to:  10 ShMem   1 Linda.
   1 Symmetry operations used in ECPInt.
 ECPInt:  NShTT=    3321 NPrTT=   20810 LenC2=    3166 LenP2D=   14964.
 LDataN:  DoStor=T MaxTD1= 9 Len=  602
 Calling FoFJK, ICntrl=      2127 FMM=F ISym2X=0 I1Cent= 0 IOpClX= 0 NMat=1 NMatS=1 NMatT=0.
 CoulSu:  requested number of processors reduced to:  10 ShMem   1 Linda.
 Defaulting to unpruned grid for atomic number  40.
 Defaulting to unpruned grid for atomic number  40.
 Defaulting to unpruned grid for atomic number  40.
 Defaulting to unpruned grid for atomic number  40.
 Defaulting to unpruned grid for atomic number  40.
 Defaulting to unpruned grid for atomic number  40.
 Defaulting to unpruned grid for atomic number  40.
 Defaulting to unpruned grid for atomic number  40.
 Defaulting to unpruned grid for atomic number  40.
 Defaulting to unpruned grid for atomic number  40.
 Defaulting to unpruned grid for atomic number  40.
 Defaulting to unpruned grid for atomic number  40.
 Defaulting to unpruned grid for atomic number  40.
 Defaulting to unpruned grid for atomic number  40.
 Defaulting to unpruned grid for atomic number  40.
 Defaulting to unpruned grid for atomic number  40.
 ***** Axes restored to original set *****
 -------------------------------------------------------------------
 Center     Atomic                   Forces (Hartrees/Bohr)
 Number     Number              X              Y              Z
 -------------------------------------------------------------------
      1       40          -0.000140681    0.000256920   -0.000105044
      2       14          -0.000013070    0.000432481   -0.000035029
      3        8           0.000135990   -0.000591283    0.000073789
      4        8          -0.000001279   -0.000061467   -0.000008998
      5        8           0.000006165   -0.000041860    0.000009284
      6        8           0.000007855   -0.000022139   -0.000005176
      7        1          -0.000013867    0.000000796    0.000018158
      8        1          -0.000002337    0.000002393   -0.000000750
      9        1           0.000024361    0.000001666   -0.000004163
     10        8          -0.000018355   -0.000007000    0.000037117
     11        1           0.000005710   -0.000002820   -0.000000788
     12        8          -0.000027044   -0.000031010   -0.000001908
     13        1           0.000014938   -0.000001427    0.000008284
     14        8           0.000015963    0.000064672    0.000019982
     15        1           0.000005652    0.000000078   -0.000004758
 -------------------------------------------------------------------
 Cartesian Forces:  Max     0.000591283 RMS     0.000122472

 GradGradGradGradGradGradGradGradGradGradGradGradGradGradGradGradGradGrad
 Berny optimization.
 FormGI is forming the generalized inverse of G from B-inverse, IUseBI=4.
 Internal  Forces:  Max     0.000561725 RMS     0.000107301
 Search for a local minimum.
 Step number   1 out of a maximum of   66
 All quantities printed in internal units (Hartrees-Bohrs-Radians)
 Mixed Optimization -- En-DIIS/RFO-DIIS
 Second derivative matrix not updated -- first step.
 ITU=  0
     Eigenvalues ---    0.00230   0.01593   0.01593   0.01596   0.01596
     Eigenvalues ---    0.01597   0.01597   0.03218   0.03513   0.03622
     Eigenvalues ---    0.03651   0.07275   0.08104   0.09094   0.09904
     Eigenvalues ---    0.12536   0.16000   0.16000   0.16000   0.19267
     Eigenvalues ---    0.19724   0.20497   0.21319   0.21585   0.21871
     Eigenvalues ---    0.25000   0.25000   0.25000   0.40815   0.42013
     Eigenvalues ---    0.42343   0.46151   0.54671   0.54696   0.54706
     Eigenvalues ---    0.56060   0.56106   0.561261000.000001000.00000
     Eigenvalues --- 1000.000001000.000001000.000001000.000001000.00000
     Eigenvalues --- 1000.000001000.000001000.000001000.000001000.00000
     Eigenvalues --- 1000.000001000.000001000.000001000.000001000.00000
     Eigenvalues --- 1000.00000
 RFO step:  Lambda=-3.05877367D-07 EMin= 2.30000000D-03
 Linear search not attempted -- first point.
 Iteration  1 RMS(Cart)=  0.00123844 RMS(Int)=  0.00000034
 Iteration  2 RMS(Cart)=  0.00000055 RMS(Int)=  0.00000002
 Iteration  1 RMS(Cart)=  0.00000002 RMS(Int)=  0.00000001
 Variable       Old X    -DE/DX   Delta X   Delta X   Delta X     New X
                                 (Linear)    (Quad)   (Total)
    R1        3.71874  -0.00013   0.00000  -0.00070  -0.00070   3.71804
    R2        3.65768  -0.00003   0.00000  -0.00014  -0.00014   3.65754
    R3        3.66597   0.00002   0.00000   0.00008   0.00008   3.66605
    R4        3.64891   0.00007   0.00000   0.00031   0.00031   3.64922
    R5        3.07656  -0.00000   0.00000   0.00001   0.00001   3.07656
    R6        3.12188  -0.00006   0.00000  -0.00015  -0.00015   3.12173
    R7        3.14160   0.00005   0.00000   0.00012   0.00012   3.14172
    R8        3.12607   0.00000   0.00000   0.00001   0.00001   3.12608
    R9        1.82103  -0.00002   0.00000  -0.00004  -0.00004   1.82099
   R10        1.82094   0.00001   0.00000   0.00001   0.00001   1.82095
   R11        1.82125  -0.00000   0.00000  -0.00000  -0.00000   1.82125
   R12        1.80845   0.00000   0.00000   0.00001   0.00001   1.80846
   R13        1.80902   0.00001   0.00000   0.00003   0.00003   1.80905
   R14        1.80862   0.00000   0.00000   0.00000   0.00000   1.80863
    A1        1.89731  -0.00001   0.00000  -0.00002  -0.00002   1.89729
    A2        1.87223  -0.00008   0.00000  -0.00030  -0.00030   1.87193
    A3        1.91938   0.00006   0.00000   0.00022   0.00022   1.91961
    A4        1.92569  -0.00008   0.00000  -0.00025  -0.00025   1.92544
    A5        1.92189   0.00007   0.00000   0.00025   0.00025   1.92214
    A6        1.92651   0.00003   0.00000   0.00009   0.00009   1.92660
    A7        0.02865   0.00033   0.00000   0.00000   0.00000   0.02865
    A8        1.85732   0.00002   0.00000   0.00000   0.00000   1.85732
    A9        1.91623  -0.00001   0.00000  -0.00001  -0.00001   1.91623
   A10        2.00318  -0.00001   0.00000  -0.00009  -0.00009   2.00309
   A11        1.98538  -0.00002   0.00000  -0.00002  -0.00002   1.98537
   A12        1.87150   0.00010   0.00000   0.00015   0.00015   1.87165
   A13        1.83360  -0.00007   0.00000  -0.00004  -0.00004   1.83356
   A14        2.02272   0.00001   0.00000   0.00004   0.00004   2.02276
   A15        2.02757   0.00002   0.00000   0.00013   0.00013   2.02770
   A16        2.01697   0.00000   0.00000   0.00003   0.00003   2.01700
   A17        3.18300   0.00056   0.00000  -0.00009  -0.00009   3.18291
   A18        3.24632   0.00001   0.00000   0.00049   0.00049   3.24681
   A19        3.39475   0.00001   0.00000   0.00093   0.00093   3.39568
   A20        3.03599   0.00001   0.00000   0.00071   0.00071   3.03670
   A21        3.10098  -0.00035   0.00000  -0.00015  -0.00015   3.10083
   A22        3.01695   0.00000   0.00000   0.00027   0.00027   3.01722
   A23        3.14610   0.00000   0.00000   0.00011   0.00011   3.14620
   A24        3.13568   0.00001   0.00000   0.00045   0.00045   3.13613
    D1       -2.52001   0.00004   0.00000   0.00098   0.00098  -2.51903
    D2        1.60723   0.00003   0.00000   0.00105   0.00105   1.60828
    D3       -0.47054  -0.00004   0.00000   0.00114   0.00114  -0.46940
    D4        1.66739   0.00003   0.00000   0.00147   0.00147   1.66886
    D5       -0.48856   0.00002   0.00000   0.00154   0.00154  -0.48702
    D6       -2.56632  -0.00005   0.00000   0.00163   0.00163  -2.56470
    D7       -0.42345   0.00004   0.00000   0.00143   0.00143  -0.42202
    D8       -2.57939   0.00002   0.00000   0.00149   0.00149  -2.57790
    D9        1.62603  -0.00005   0.00000   0.00158   0.00158   1.62761
   D10        2.89898   0.00002   0.00000  -0.00015  -0.00015   2.89883
   D11       -1.27200  -0.00000   0.00000  -0.00017  -0.00017  -1.27218
   D12        0.74733  -0.00003   0.00000  -0.00014  -0.00014   0.74719
   D13        0.64333   0.00003   0.00000   0.00033   0.00033   0.64366
   D14       -1.43559   0.00003   0.00000   0.00034   0.00034  -1.43525
   D15        2.80610  -0.00004   0.00000   0.00019   0.00019   2.80629
   D16        1.54308  -0.00005   0.00000  -0.00002  -0.00002   1.54306
   D17       -2.68114   0.00003   0.00000   0.00004   0.00004  -2.68110
   D18       -0.56330   0.00002   0.00000   0.00007   0.00007  -0.56323
         Item               Value     Threshold  Converged?
 Maximum Force            0.000139     0.000450     YES
 RMS     Force            0.000028     0.000300     YES
 Maximum Displacement     0.003144     0.001800     NO 
 RMS     Displacement     0.001239     0.001200     NO 
 Predicted change in Energy=-1.529045D-07
 GradGradGradGradGradGradGradGradGradGradGradGradGradGradGradGradGradGrad

                          Input orientation:                          
 ---------------------------------------------------------------------
 Center     Atomic      Atomic             Coordinates (Angstroms)
 Number     Number       Type             X           Y           Z
 ---------------------------------------------------------------------
      1         40           0        1.390028   -0.001471   -0.010904
      2         14           0       -2.203859   -0.049298    0.018741
      3          8           0       -0.576013   -0.073878    0.011454
      4          8           0       -2.646001    1.393766    0.690320
      5          8           0       -2.783209   -1.374762    0.838191
      6          8           0       -2.904908   -0.128947   -1.477498
      7          1           0       -2.276964   -1.652283    1.609703
      8          1           0       -3.072192   -1.017314   -1.811654
      9          1           0       -3.568904    1.646116    0.575678
     10          8           0        2.026028   -0.895117   -1.605587
     11          1           0        2.433241   -1.219304   -2.408656
     12          8           0        2.017927   -0.925626    1.575049
     13          1           0        2.542592   -1.295013    2.285484
     14          8           0        1.982996    1.836274    0.002364
     15          1           0        2.180999    2.772376    0.025125
 ---------------------------------------------------------------------
                    Distance matrix (angstroms):
                    1          2          3          4          5
     1  Zr   0.000000
     2  Si   3.594328   0.000000
     3  O    1.967501   1.628048   0.000000
     4  O    4.327578   1.651950   2.626726   0.000000
     5  O    4.474684   1.662528   2.692119   2.775867   0.000000
     6  O    4.540223   1.654250   2.764736   2.661789   2.632352
     7  H    4.335710   2.259661   2.817623   3.203103   0.963604
     8  H    4.917931   2.245307   3.231826   3.500688   2.689416
     9  H    5.258291   2.246765   3.497731   0.963625   3.132401
    10  O    1.935488   4.609316   3.171730   5.686654   5.415798
    11  H    2.884549   5.363196   4.027970   6.498499   6.146343
    12  O    1.939992   4.584051   3.146240   5.283422   4.878072
    13  H    2.876639   5.405435   4.048219   6.057688   5.519527
    14  O    1.931086   4.591884   3.193320   4.700714   5.807415
    15  H    2.884642   5.214294   3.962633   5.063890   6.519447
                    6          7          8          9         10
     6  O    0.000000
     7  H    3.499382   0.000000
     8  H    0.963763   3.569490   0.000000
     9  H    2.794149   3.690224   3.611085   0.000000
    10  O    4.991748   5.424678   5.103845   6.520663   0.000000
    11  H    5.527366   6.206506   5.541390   7.289899   0.956995
    12  O    5.846969   4.356067   6.114529   6.230993   3.180793
    13  H    6.722723   4.879800   6.956253   6.994574   3.945528
    14  O    5.472083   5.735924   6.081821   5.584661   3.169836
    15  H    6.044998   6.477803   6.732868   5.884976   4.016683
                   11         12         13         14         15
    11  H    0.000000
    12  O    4.016048   0.000000
    13  H    4.696024   0.957308   0.000000
    14  O    3.918201   3.178467   3.915449   0.000000
    15  H    4.681925   4.012988   4.667292   0.957084   0.000000
 Stoichiometry    H6O7SiZr
 Framework group  C1[X(H6O7SiZr)]
 Deg. of freedom    39
 Full point group                 C1      NOp   1
 Largest Abelian subgroup         C1      NOp   1
 Largest concise Abelian subgroup C1      NOp   1
                         Standard orientation:                         
 ---------------------------------------------------------------------
 Center     Atomic      Atomic             Coordinates (Angstroms)
 Number     Number       Type             X           Y           Z
 ---------------------------------------------------------------------
      1         40           0       -1.390936    0.000144    0.010999
      2         14           0        2.203310    0.011769   -0.010331
      3          8           0        0.576076   -0.039637   -0.007495
      4          8           0        2.623171    1.471718   -0.659334
      5          8           0        2.806243   -1.291680   -0.847881
      6          8           0        2.902182   -0.078590    1.486318
      7          1           0        2.306382   -1.565978   -1.624691
      8          1           0        3.083301   -0.968958    1.807688
      9          1           0        3.541535    1.737454   -0.538648
     10          8           0       -2.015759   -0.927424    1.590659
     11          1           0       -2.419403   -1.270152    2.387810
     12          8           0       -1.999950   -0.910522   -1.590050
     13          1           0       -2.516856   -1.277873   -2.307196
     14          8           0       -2.014026    1.827901    0.023484
     15          1           0       -2.227352    2.760861    0.014105
 ---------------------------------------------------------------------
 Rotational constants (GHZ):           1.6228823           0.4698755           0.4667234
 Basis read from rwf:  (5D, 7F)
 Pseudo-potential data read from rwf file.
 There are   300 symmetry adapted cartesian basis functions of A   symmetry.
 There are   266 symmetry adapted basis functions of A   symmetry.
   266 basis functions,   576 primitive gaussians,   300 cartesian basis functions
    44 alpha electrons       44 beta electrons
       nuclear repulsion energy       630.5012943298 Hartrees.
 NAtoms=   15 NActive=   15 NUniq=   15 SFac= 1.00D+00 NAtFMM=   60 NAOKFM=F Big=F
 Integral buffers will be    131072 words long.
 Raffenetti 2 integral format.
 Two-electron integral symmetry is turned on.
 Nuclear repulsion after empirical dispersion term =      630.4910957734 Hartrees.
 One-electron integrals computed using PRISM.
 PrsmSu:  requested number of processors reduced to:   4 ShMem   1 Linda.
   1 Symmetry operations used in ECPInt.
 ECPInt:  NShTT=    3321 NPrTT=   20810 LenC2=    3166 LenP2D=   14964.
 LDataN:  DoStor=T MaxTD1= 8 Len=  415
 NBasis=   266 RedAO= T EigKep=  1.03D-04  NBF=   266
 NBsUse=   266 1.00D-06 EigRej= -1.00D+00 NBFU=   266
 Defaulting to unpruned grid for atomic number  40.
 Initial guess from the checkpoint file:  "/localscratch/sarashs.37146734.0/Gau-3639.chk"
 B after Tr=     0.000000   -0.000000   -0.000000
         Rot=    1.000000    0.000142    0.000015   -0.000029 Ang=   0.02 deg.
 Requested convergence on RMS density matrix=1.00D-08 within 128 cycles.
 Requested convergence on MAX density matrix=1.00D-06.
 Requested convergence on             energy=1.00D-06.
 No special actions if energy rises.
 Defaulting to unpruned grid for atomic number  40.
 Defaulting to unpruned grid for atomic number  40.
 Defaulting to unpruned grid for atomic number  40.
 Defaulting to unpruned grid for atomic number  40.
 Defaulting to unpruned grid for atomic number  40.
 Defaulting to unpruned grid for atomic number  40.
 Defaulting to unpruned grid for atomic number  40.
 Defaulting to unpruned grid for atomic number  40.
 Defaulting to unpruned grid for atomic number  40.
 Defaulting to unpruned grid for atomic number  40.
 Defaulting to unpruned grid for atomic number  40.
 Defaulting to unpruned grid for atomic number  40.
 Defaulting to unpruned grid for atomic number  40.
 Defaulting to unpruned grid for atomic number  40.
 Defaulting to unpruned grid for atomic number  40.
 Defaulting to unpruned grid for atomic number  40.
 SCF Done:  E(RB3LYP) =  -867.127740435     A.U. after    7 cycles
            NFock=  7  Conv=0.62D-08     -V/T= 2.0439
 PrsmSu:  requested number of processors reduced to:   2 ShMem   1 Linda.
 PrsmSu:  requested number of processors reduced to:  10 ShMem   1 Linda.
   1 Symmetry operations used in ECPInt.
 ECPInt:  NShTT=    3321 NPrTT=   20810 LenC2=    3166 LenP2D=   14964.
 LDataN:  DoStor=T MaxTD1= 9 Len=  602
 Calling FoFJK, ICntrl=      2127 FMM=F ISym2X=0 I1Cent= 0 IOpClX= 0 NMat=1 NMatS=1 NMatT=0.
 CoulSu:  requested number of processors reduced to:  10 ShMem   1 Linda.
 Defaulting to unpruned grid for atomic number  40.
 Defaulting to unpruned grid for atomic number  40.
 Defaulting to unpruned grid for atomic number  40.
 Defaulting to unpruned grid for atomic number  40.
 Defaulting to unpruned grid for atomic number  40.
 Defaulting to unpruned grid for atomic number  40.
 Defaulting to unpruned grid for atomic number  40.
 Defaulting to unpruned grid for atomic number  40.
 Defaulting to unpruned grid for atomic number  40.
 Defaulting to unpruned grid for atomic number  40.
 Defaulting to unpruned grid for atomic number  40.
 Defaulting to unpruned grid for atomic number  40.
 Defaulting to unpruned grid for atomic number  40.
 Defaulting to unpruned grid for atomic number  40.
 Defaulting to unpruned grid for atomic number  40.
 Defaulting to unpruned grid for atomic number  40.
 ***** Axes restored to original set *****
 -------------------------------------------------------------------
 Center     Atomic                   Forces (Hartrees/Bohr)
 Number     Number              X              Y              Z
 -------------------------------------------------------------------
      1       40           0.000012337    0.000305464   -0.000055051
      2       14          -0.000031027    0.000349195   -0.000034941
      3        8           0.000001469   -0.000581915    0.000071799
      4        8           0.000006100   -0.000034054   -0.000001141
      5        8           0.000019391   -0.000014034   -0.000006103
      6        8           0.000009354   -0.000009858    0.000005179
      7        1          -0.000013085    0.000007039    0.000010345
      8        1          -0.000002125    0.000000660    0.000001313
      9        1           0.000003300    0.000009183   -0.000004271
     10        8          -0.000000745   -0.000014235   -0.000004647
     11        1           0.000001377   -0.000002855    0.000000764
     12        8          -0.000016020   -0.000024959    0.000006960
     13        1           0.000006710    0.000002386    0.000000197
     14        8           0.000001574    0.000011986    0.000013561
     15        1           0.000001390   -0.000004005   -0.000003964
 -------------------------------------------------------------------
 Cartesian Forces:  Max     0.000581915 RMS     0.000112392

 GradGradGradGradGradGradGradGradGradGradGradGradGradGradGradGradGradGrad
 Berny optimization.
 Using GEDIIS/GDIIS optimizer.
 FormGI is forming the generalized inverse of G from B-inverse, IUseBI=4.
 Internal  Forces:  Max     0.000548077 RMS     0.000102101
 Search for a local minimum.
 Step number   2 out of a maximum of   66
 All quantities printed in internal units (Hartrees-Bohrs-Radians)
 Mixed Optimization -- En-DIIS/RFO-DIIS
 Swapping is turned off.
 Update second derivatives using D2CorX and points    1    2
 DE= -2.10D-07 DEPred=-1.53D-07 R= 1.37D+00
 Trust test= 1.37D+00 RLast= 4.54D-03 DXMaxT set to 3.00D-01
 ITU=  0  0
     Eigenvalues ---    0.00167   0.01383   0.01593   0.01595   0.01596
     Eigenvalues ---    0.01597   0.01608   0.03141   0.03341   0.03619
     Eigenvalues ---    0.03633   0.07010   0.07816   0.08146   0.09904
     Eigenvalues ---    0.12484   0.15871   0.16000   0.16017   0.19156
     Eigenvalues ---    0.20479   0.21063   0.21297   0.21644   0.23826
     Eigenvalues ---    0.24980   0.25000   0.27459   0.41042   0.41816
     Eigenvalues ---    0.42232   0.46493   0.54671   0.54704   0.54852
     Eigenvalues ---    0.56057   0.56123   0.561481000.000001000.00000
     Eigenvalues --- 1000.000001000.000001000.000001000.000001000.00000
     Eigenvalues --- 1000.000001000.000001000.000001000.000001000.00000
     Eigenvalues --- 1000.000001000.000001000.000001000.000001000.00000
     Eigenvalues --- 1000.00000
 En-DIIS/RFO-DIIS/Sim-DIIS IScMMF=       -3 using points:     2    1
 RFO step:  Lambda=-2.08615343D-07.
 DidBck=F Rises=F RFO-DIIS coefs:    2.85522   -1.85522
 Iteration  1 RMS(Cart)=  0.00238057 RMS(Int)=  0.00000123
 Iteration  2 RMS(Cart)=  0.00000194 RMS(Int)=  0.00000013
 Iteration  3 RMS(Cart)=  0.00000000 RMS(Int)=  0.00000013
 Iteration  1 RMS(Cart)=  0.00000022 RMS(Int)=  0.00000012
 Variable       Old X    -DE/DX   Delta X   Delta X   Delta X     New X
                                 (Linear)    (Quad)   (Total)
    R1        3.71804   0.00002  -0.00131   0.00109  -0.00022   3.71782
    R2        3.65754   0.00001  -0.00025   0.00028   0.00003   3.65757
    R3        3.66605   0.00001   0.00015  -0.00001   0.00014   3.66619
    R4        3.64922   0.00001   0.00058  -0.00038   0.00020   3.64942
    R5        3.07656   0.00001   0.00002   0.00006   0.00007   3.07664
    R6        3.12173  -0.00003  -0.00028   0.00011  -0.00017   3.12157
    R7        3.14172   0.00001   0.00022  -0.00015   0.00007   3.14180
    R8        3.12608  -0.00001   0.00002  -0.00005  -0.00003   3.12605
    R9        1.82099  -0.00000  -0.00008   0.00006  -0.00002   1.82097
   R10        1.82095   0.00000   0.00002  -0.00002   0.00000   1.82095
   R11        1.82125  -0.00000  -0.00001   0.00000  -0.00000   1.82124
   R12        1.80846   0.00000   0.00001  -0.00001   0.00001   1.80846
   R13        1.80905   0.00000   0.00005  -0.00003   0.00002   1.80907
   R14        1.80863  -0.00000   0.00000  -0.00001  -0.00001   1.80862
    A1        1.89729  -0.00001  -0.00004  -0.00002  -0.00007   1.89723
    A2        1.87193  -0.00007  -0.00056   0.00009  -0.00047   1.87146
    A3        1.91961   0.00005   0.00042  -0.00009   0.00032   1.91993
    A4        1.92544  -0.00007  -0.00047   0.00014  -0.00033   1.92511
    A5        1.92214   0.00007   0.00047  -0.00010   0.00036   1.92250
    A6        1.92660   0.00002   0.00017  -0.00001   0.00015   1.92675
    A7        0.02865   0.00033   0.00000   0.00000   0.00000   0.02866
    A8        1.85732   0.00002   0.00001  -0.00001  -0.00000   1.85732
    A9        1.91623  -0.00002  -0.00001  -0.00001  -0.00002   1.91621
   A10        2.00309  -0.00001  -0.00016   0.00003  -0.00013   2.00296
   A11        1.98537  -0.00001  -0.00003   0.00003   0.00000   1.98537
   A12        1.87165   0.00009   0.00028  -0.00009   0.00019   1.87184
   A13        1.83356  -0.00006  -0.00008   0.00004  -0.00004   1.83352
   A14        2.02276   0.00001   0.00007   0.00006   0.00013   2.02290
   A15        2.02770   0.00001   0.00024  -0.00009   0.00015   2.02785
   A16        2.01700   0.00000   0.00006  -0.00004   0.00002   2.01701
   A17        3.18291   0.00055  -0.00016  -0.00001  -0.00018   3.18274
   A18        3.24681   0.00000   0.00091  -0.00051   0.00040   3.24721
   A19        3.39568   0.00001   0.00173  -0.00018   0.00155   3.39723
   A20        3.03670   0.00001   0.00132  -0.00048   0.00084   3.03754
   A21        3.10083  -0.00035  -0.00029  -0.00001  -0.00029   3.10053
   A22        3.01722   0.00001   0.00050   0.00016   0.00066   3.01788
   A23        3.14620   0.00000   0.00019   0.00002   0.00022   3.14642
   A24        3.13613   0.00001   0.00084   0.00000   0.00084   3.13697
    D1       -2.51903   0.00006   0.00182   0.00034   0.00216  -2.51687
    D2        1.60828   0.00004   0.00195   0.00031   0.00226   1.61053
    D3       -0.46940  -0.00003   0.00212   0.00024   0.00235  -0.46704
    D4        1.66886   0.00003   0.00273   0.00013   0.00286   1.67172
    D5       -0.48702   0.00001   0.00285   0.00010   0.00295  -0.48407
    D6       -2.56470  -0.00006   0.00302   0.00003   0.00305  -2.56164
    D7       -0.42202   0.00003   0.00265   0.00015   0.00279  -0.41923
    D8       -2.57790   0.00002   0.00277   0.00012   0.00289  -2.57501
    D9        1.62761  -0.00006   0.00294   0.00004   0.00298   1.63059
   D10        2.89883   0.00002  -0.00029  -0.00001  -0.00030   2.89853
   D11       -1.27218  -0.00000  -0.00032  -0.00000  -0.00032  -1.27249
   D12        0.74719  -0.00003  -0.00025   0.00001  -0.00025   0.74695
   D13        0.64366   0.00003   0.00062   0.00001   0.00063   0.64429
   D14       -1.43525   0.00003   0.00064   0.00000   0.00064  -1.43461
   D15        2.80629  -0.00003   0.00036   0.00007   0.00044   2.80673
   D16        1.54306  -0.00005  -0.00004   0.00005   0.00001   1.54307
   D17       -2.68110   0.00003   0.00007  -0.00000   0.00006  -2.68104
   D18       -0.56323   0.00002   0.00013   0.00001   0.00014  -0.56309
         Item               Value     Threshold  Converged?
 Maximum Force            0.000038     0.000450     YES
 RMS     Force            0.000011     0.000300     YES
 Maximum Displacement     0.006050     0.001800     NO 
 RMS     Displacement     0.002381     0.001200     NO 
 Predicted change in Energy=-1.046814D-07
 GradGradGradGradGradGradGradGradGradGradGradGradGradGradGradGradGradGrad

                          Input orientation:                          
 ---------------------------------------------------------------------
 Center     Atomic      Atomic             Coordinates (Angstroms)
 Number     Number       Type             X           Y           Z
 ---------------------------------------------------------------------
      1         40           0        1.389854   -0.000996   -0.011109
      2         14           0       -2.203947   -0.049322    0.018580
      3          8           0       -0.576060   -0.073701    0.011099
      4          8           0       -2.646159    1.394622    0.688000
      5          8           0       -2.782990   -1.373656    0.840151
      6          8           0       -2.905000   -0.131575   -1.477500
      7          1           0       -2.276978   -1.649708    1.612345
      8          1           0       -3.072181   -1.020515   -1.810172
      9          1           0       -3.569019    1.646904    0.572955
     10          8           0        2.025948   -0.893470   -1.606428
     11          1           0        2.433439   -1.217459   -2.409440
     12          8           0        2.017004   -0.927467    1.573880
     13          1           0        2.542592   -1.297485    2.283318
     14          8           0        1.983196    1.836721    0.004551
     15          1           0        2.182063    2.772627    0.027580
 ---------------------------------------------------------------------
                    Distance matrix (angstroms):
                    1          2          3          4          5
     1  Zr   0.000000
     2  Si   3.594249   0.000000
     3  O    1.967383   1.628087   0.000000
     4  O    4.327344   1.651862   2.626685   0.000000
     5  O    4.474536   1.662567   2.692165   2.775830   0.000000
     6  O    4.540168   1.654235   2.764641   2.661891   2.632329
     7  H    4.335841   2.259791   2.817962   3.202913   0.963606
     8  H    4.917907   2.245302   3.231735   3.500749   2.689341
     9  H    5.258054   2.246762   3.497709   0.963615   3.132573
    10  O    1.935501   4.609257   3.171570   5.685802   5.416845
    11  H    2.884586   5.363317   4.027936   6.497646   6.147794
    12  O    1.940066   4.583287   3.145660   5.284124   4.876206
    13  H    2.876471   5.405237   4.048038   6.059341   5.518184
    14  O    1.931192   4.592333   3.193672   4.700370   5.807002
    15  H    2.884801   5.215416   3.963470   5.064265   6.519485
                    6          7          8          9         10
     6  O    0.000000
     7  H    3.499469   0.000000
     8  H    0.963761   3.569574   0.000000
     9  H    2.794329   3.690170   3.611270   0.000000
    10  O    4.991128   5.426561   5.103780   6.519729   0.000000
    11  H    5.526896   6.208834   5.541638   7.288947   0.956998
    12  O    5.845553   4.354468   6.112305   6.231604   3.180502
    13  H    6.721559   4.878783   6.954067   6.996181   3.944651
    14  O    5.474041   5.734917   6.083901   5.584461   3.170334
    15  H    6.047964   6.477004   6.735899   5.885545   4.016792
                   11         12         13         14         15
    11  H    0.000000
    12  O    4.015513   0.000000
    13  H    4.694709   0.957318   0.000000
    14  O    3.918939   3.178785   3.915220   0.000000
    15  H    4.682204   4.013600   4.667349   0.957078   0.000000
 Stoichiometry    H6O7SiZr
 Framework group  C1[X(H6O7SiZr)]
 Deg. of freedom    39
 Full point group                 C1      NOp   1
 Largest Abelian subgroup         C1      NOp   1
 Largest concise Abelian subgroup C1      NOp   1
                         Standard orientation:                         
 ---------------------------------------------------------------------
 Center     Atomic      Atomic             Coordinates (Angstroms)
 Number     Number       Type             X           Y           Z
 ---------------------------------------------------------------------
      1         40           0       -1.390890    0.000272    0.011053
      2         14           0        2.203278    0.011926   -0.010239
      3          8           0        0.576006   -0.039524   -0.007226
      4          8           0        2.622987    1.472490   -0.657730
      5          8           0        2.806108   -1.290662   -0.849281
      6          8           0        2.902171   -0.080241    1.486272
      7          1           0        2.306518   -1.563909   -1.626637
      8          1           0        3.083325   -0.970988    1.806564
      9          1           0        3.541266    1.738344   -0.536741
     10          8           0       -2.015730   -0.925503    1.591774
     11          1           0       -2.419624   -1.267730    2.389017
     12          8           0       -1.998939   -0.913537   -1.588661
     13          1           0       -2.516686   -1.281955   -2.304667
     14          8           0       -2.014622    1.827942    0.020289
     15          1           0       -2.228947    2.760659    0.010203
 ---------------------------------------------------------------------
 Rotational constants (GHZ):           1.6228004           0.4699134           0.4667369
 Basis read from rwf:  (5D, 7F)
 Pseudo-potential data read from rwf file.
 There are   300 symmetry adapted cartesian basis functions of A   symmetry.
 There are   266 symmetry adapted basis functions of A   symmetry.
   266 basis functions,   576 primitive gaussians,   300 cartesian basis functions
    44 alpha electrons       44 beta electrons
       nuclear repulsion energy       630.5048575463 Hartrees.
 NAtoms=   15 NActive=   15 NUniq=   15 SFac= 1.00D+00 NAtFMM=   60 NAOKFM=F Big=F
 Integral buffers will be    131072 words long.
 Raffenetti 2 integral format.
 Two-electron integral symmetry is turned on.
 Nuclear repulsion after empirical dispersion term =      630.4946590540 Hartrees.
 One-electron integrals computed using PRISM.
 PrsmSu:  requested number of processors reduced to:   4 ShMem   1 Linda.
   1 Symmetry operations used in ECPInt.
 ECPInt:  NShTT=    3321 NPrTT=   20810 LenC2=    3166 LenP2D=   14964.
 LDataN:  DoStor=T MaxTD1= 8 Len=  415
 NBasis=   266 RedAO= T EigKep=  1.03D-04  NBF=   266
 NBsUse=   266 1.00D-06 EigRej= -1.00D+00 NBFU=   266
 Defaulting to unpruned grid for atomic number  40.
 Initial guess from the checkpoint file:  "/localscratch/sarashs.37146734.0/Gau-3639.chk"
 B after Tr=    -0.000000   -0.000000   -0.000000
         Rot=    1.000000    0.000231    0.000021   -0.000039 Ang=   0.03 deg.
 Requested convergence on RMS density matrix=1.00D-08 within 128 cycles.
 Requested convergence on MAX density matrix=1.00D-06.
 Requested convergence on             energy=1.00D-06.
 No special actions if energy rises.
 Defaulting to unpruned grid for atomic number  40.
 Defaulting to unpruned grid for atomic number  40.
 Defaulting to unpruned grid for atomic number  40.
 Defaulting to unpruned grid for atomic number  40.
 Defaulting to unpruned grid for atomic number  40.
 Defaulting to unpruned grid for atomic number  40.
 Defaulting to unpruned grid for atomic number  40.
 Defaulting to unpruned grid for atomic number  40.
 Defaulting to unpruned grid for atomic number  40.
 Defaulting to unpruned grid for atomic number  40.
 Defaulting to unpruned grid for atomic number  40.
 Defaulting to unpruned grid for atomic number  40.
 Defaulting to unpruned grid for atomic number  40.
 Defaulting to unpruned grid for atomic number  40.
 Defaulting to unpruned grid for atomic number  40.
 Defaulting to unpruned grid for atomic number  40.
 SCF Done:  E(RB3LYP) =  -867.127740576     A.U. after    7 cycles
            NFock=  7  Conv=0.66D-08     -V/T= 2.0439
 PrsmSu:  requested number of processors reduced to:   2 ShMem   1 Linda.
 PrsmSu:  requested number of processors reduced to:  10 ShMem   1 Linda.
   1 Symmetry operations used in ECPInt.
 ECPInt:  NShTT=    3321 NPrTT=   20810 LenC2=    3166 LenP2D=   14964.
 LDataN:  DoStor=T MaxTD1= 9 Len=  602
 Calling FoFJK, ICntrl=      2127 FMM=F ISym2X=0 I1Cent= 0 IOpClX= 0 NMat=1 NMatS=1 NMatT=0.
 CoulSu:  requested number of processors reduced to:  10 ShMem   1 Linda.
 Defaulting to unpruned grid for atomic number  40.
 Defaulting to unpruned grid for atomic number  40.
 Defaulting to unpruned grid for atomic number  40.
 Defaulting to unpruned grid for atomic number  40.
 Defaulting to unpruned grid for atomic number  40.
 Defaulting to unpruned grid for atomic number  40.
 Defaulting to unpruned grid for atomic number  40.
 Defaulting to unpruned grid for atomic number  40.
 Defaulting to unpruned grid for atomic number  40.
 Defaulting to unpruned grid for atomic number  40.
 Defaulting to unpruned grid for atomic number  40.
 Defaulting to unpruned grid for atomic number  40.
 Defaulting to unpruned grid for atomic number  40.
 Defaulting to unpruned grid for atomic number  40.
 Defaulting to unpruned grid for atomic number  40.
 Defaulting to unpruned grid for atomic number  40.
 ***** Axes restored to original set *****
 -------------------------------------------------------------------
 Center     Atomic                   Forces (Hartrees/Bohr)
 Number     Number              X              Y              Z
 -------------------------------------------------------------------
      1       40           0.000053581    0.000278241   -0.000031742
      2       14           0.000003030    0.000268598   -0.000036621
      3        8          -0.000048821   -0.000559613    0.000071060
      4        8          -0.000001662    0.000006317    0.000009301
      5        8           0.000020463    0.000006087   -0.000016269
      6        8           0.000000974    0.000002469    0.000004778
      7        1          -0.000008412    0.000011214    0.000004619
      8        1          -0.000001982   -0.000000825    0.000002536
      9        1          -0.000004977    0.000009047   -0.000004143
     10        8           0.000003990    0.000006936   -0.000004294
     11        1          -0.000002799   -0.000001391    0.000002260
     12        8          -0.000007425   -0.000001343   -0.000003255
     13        1           0.000001489    0.000003425   -0.000001812
     14        8          -0.000006735   -0.000029369    0.000006090
     15        1          -0.000000716    0.000000207   -0.000002508
 -------------------------------------------------------------------
 Cartesian Forces:  Max     0.000559613 RMS     0.000103038

 GradGradGradGradGradGradGradGradGradGradGradGradGradGradGradGradGradGrad
 Berny optimization.
 Using GEDIIS/GDIIS optimizer.
 FormGI is forming the generalized inverse of G from B-inverse, IUseBI=4.
 Internal  Forces:  Max     0.000532146 RMS     0.000099237
 Search for a local minimum.
 Step number   3 out of a maximum of   66
 All quantities printed in internal units (Hartrees-Bohrs-Radians)
 Mixed Optimization -- En-DIIS/RFO-DIIS
 Swapping is turned off.
 Update second derivatives using D2CorX and points    1    2    3
 DE= -1.40D-07 DEPred=-1.05D-07 R= 1.34D+00
 Trust test= 1.34D+00 RLast= 8.56D-03 DXMaxT set to 3.00D-01
 ITU=  0  0  0
     Eigenvalues ---    0.00095   0.01320   0.01594   0.01595   0.01596
     Eigenvalues ---    0.01597   0.01629   0.03035   0.03291   0.03618
     Eigenvalues ---    0.03633   0.07248   0.08036   0.08582   0.09904
     Eigenvalues ---    0.12522   0.15877   0.16000   0.16051   0.19255
     Eigenvalues ---    0.20491   0.21291   0.21363   0.22166   0.24193
     Eigenvalues ---    0.24998   0.25068   0.30542   0.41531   0.42017
     Eigenvalues ---    0.45149   0.46766   0.54671   0.54704   0.55181
     Eigenvalues ---    0.56087   0.56126   0.562451000.000001000.00000
     Eigenvalues --- 1000.000001000.000001000.000001000.000001000.00000
     Eigenvalues --- 1000.000001000.000001000.000001000.000001000.00000
     Eigenvalues --- 1000.000001000.000001000.000001000.000001000.00000
     Eigenvalues --- 1000.00000
 En-DIIS/RFO-DIIS/Sim-DIIS IScMMF=       -3 using points:     3    2    1
 RFO step:  Lambda=-1.03200176D-07.
 DIIS inversion failure, remove point   3.
 RFO-DIIS uses    2 points instead of    3
 DidBck=F Rises=F RFO-DIIS coefs:    2.07812   -1.07812    0.00000
 Iteration  1 RMS(Cart)=  0.00261472 RMS(Int)=  0.00000142
 Iteration  2 RMS(Cart)=  0.00000225 RMS(Int)=  0.00000014
 Iteration  3 RMS(Cart)=  0.00000000 RMS(Int)=  0.00000014
 Iteration  1 RMS(Cart)=  0.00000055 RMS(Int)=  0.00000030
 Variable       Old X    -DE/DX   Delta X   Delta X   Delta X     New X
                                 (Linear)    (Quad)   (Total)
    R1        3.71782   0.00005  -0.00024   0.00019  -0.00004   3.71777
    R2        3.65757  -0.00000   0.00003  -0.00008  -0.00006   3.65751
    R3        3.66619  -0.00001   0.00015  -0.00012   0.00003   3.66622
    R4        3.64942  -0.00003   0.00022  -0.00022  -0.00000   3.64942
    R5        3.07664  -0.00000   0.00008  -0.00004   0.00004   3.07668
    R6        3.12157   0.00002  -0.00018   0.00013  -0.00005   3.12151
    R7        3.14180  -0.00002   0.00008  -0.00009  -0.00001   3.14179
    R8        3.12605  -0.00001  -0.00003   0.00001  -0.00003   3.12603
    R9        1.82097   0.00001  -0.00002   0.00002  -0.00000   1.82096
   R10        1.82095  -0.00000   0.00000  -0.00001  -0.00000   1.82095
   R11        1.82124   0.00000  -0.00000   0.00000  -0.00000   1.82124
   R12        1.80846  -0.00000   0.00001  -0.00001  -0.00000   1.80846
   R13        1.80907  -0.00000   0.00002  -0.00001   0.00001   1.80908
   R14        1.80862  -0.00000  -0.00001   0.00001  -0.00000   1.80861
    A1        1.89723  -0.00000  -0.00007   0.00006  -0.00001   1.89722
    A2        1.87146  -0.00003  -0.00051   0.00019  -0.00032   1.87114
    A3        1.91993   0.00004   0.00035  -0.00013   0.00022   1.92015
    A4        1.92511  -0.00006  -0.00035   0.00018  -0.00017   1.92494
    A5        1.92250   0.00005   0.00039  -0.00019   0.00020   1.92270
    A6        1.92675   0.00001   0.00017  -0.00010   0.00006   1.92682
    A7        0.02866   0.00032   0.00000   0.00000   0.00000   0.02866
    A8        1.85732   0.00002  -0.00000  -0.00000  -0.00000   1.85732
    A9        1.91621  -0.00002  -0.00002   0.00001  -0.00001   1.91620
   A10        2.00296   0.00000  -0.00014   0.00008  -0.00006   2.00290
   A11        1.98537  -0.00001   0.00001   0.00000   0.00001   1.98538
   A12        1.87184   0.00008   0.00020  -0.00012   0.00009   1.87193
   A13        1.83352  -0.00006  -0.00004   0.00003  -0.00002   1.83350
   A14        2.02290   0.00001   0.00014  -0.00001   0.00014   2.02303
   A15        2.02785  -0.00000   0.00016  -0.00009   0.00006   2.02791
   A16        2.01701  -0.00000   0.00002  -0.00003  -0.00001   2.01701
   A17        3.18274   0.00053  -0.00019   0.00004  -0.00015   3.18258
   A18        3.24721  -0.00000   0.00043  -0.00042   0.00001   3.24723
   A19        3.39723   0.00001   0.00167  -0.00031   0.00136   3.39860
   A20        3.03754  -0.00000   0.00091  -0.00038   0.00052   3.03807
   A21        3.10053  -0.00034  -0.00031   0.00006  -0.00025   3.10028
   A22        3.01788   0.00000   0.00071  -0.00004   0.00067   3.01855
   A23        3.14642   0.00000   0.00023   0.00010   0.00034   3.14676
   A24        3.13697   0.00000   0.00090  -0.00006   0.00084   3.13781
    D1       -2.51687   0.00007   0.00233   0.00034   0.00268  -2.51419
    D2        1.61053   0.00005   0.00243   0.00032   0.00275   1.61328
    D3       -0.46704  -0.00002   0.00254   0.00023   0.00277  -0.46427
    D4        1.67172   0.00002   0.00308  -0.00001   0.00307   1.67479
    D5       -0.48407  -0.00000   0.00319  -0.00004   0.00314  -0.48092
    D6       -2.56164  -0.00008   0.00329  -0.00012   0.00317  -2.55848
    D7       -0.41923   0.00003   0.00301   0.00006   0.00307  -0.41616
    D8       -2.57501   0.00001   0.00311   0.00003   0.00314  -2.57187
    D9        1.63059  -0.00007   0.00322  -0.00005   0.00316   1.63376
   D10        2.89853   0.00002  -0.00032   0.00002  -0.00030   2.89823
   D11       -1.27249  -0.00000  -0.00034   0.00003  -0.00031  -1.27281
   D12        0.74695  -0.00003  -0.00026  -0.00001  -0.00028   0.74667
   D13        0.64429   0.00002   0.00068  -0.00004   0.00063   0.64493
   D14       -1.43461   0.00002   0.00069  -0.00005   0.00064  -1.43397
   D15        2.80673  -0.00002   0.00047   0.00007   0.00054   2.80727
   D16        1.54307  -0.00005   0.00002   0.00005   0.00007   1.54314
   D17       -2.68104   0.00003   0.00007   0.00002   0.00009  -2.68095
   D18       -0.56309   0.00002   0.00015  -0.00002   0.00013  -0.56296
         Item               Value     Threshold  Converged?
 Maximum Force            0.000045     0.000450     YES
 RMS     Force            0.000009     0.000300     YES
 Maximum Displacement     0.006508     0.001800     NO 
 RMS     Displacement     0.002615     0.001200     NO 
 Predicted change in Energy=-5.296304D-08
 GradGradGradGradGradGradGradGradGradGradGradGradGradGradGradGradGradGrad

                          Input orientation:                          
 ---------------------------------------------------------------------
 Center     Atomic      Atomic             Coordinates (Angstroms)
 Number     Number       Type             X           Y           Z
 ---------------------------------------------------------------------
      1         40           0        1.389780   -0.000730   -0.011226
      2         14           0       -2.204015   -0.049400    0.018392
      3          8           0       -0.576105   -0.073642    0.010815
      4          8           0       -2.646292    1.395631    0.685346
      5          8           0       -2.782849   -1.372370    0.842294
      6          8           0       -2.905091   -0.134406   -1.477508
      7          1           0       -2.277084   -1.646754    1.615241
      8          1           0       -3.072246   -1.023959   -1.808548
      9          1           0       -3.569100    1.647864    0.569788
     10          8           0        2.026007   -0.891559   -1.607375
     11          1           0        2.433452   -1.215179   -2.410558
     12          8           0        2.016377   -0.929449    1.572685
     13          1           0        2.542824   -1.300082    2.281174
     14          8           0        1.983360    1.836884    0.006956
     15          1           0        2.182743    2.772670    0.030335
 ---------------------------------------------------------------------
                    Distance matrix (angstroms):
                    1          2          3          4          5
     1  Zr   0.000000
     2  Si   3.594246   0.000000
     3  O    1.967360   1.628108   0.000000
     4  O    4.327229   1.651833   2.626676   0.000000
     5  O    4.474452   1.662562   2.692169   2.775808   0.000000
     6  O    4.540239   1.654222   2.764593   2.661941   2.632295
     7  H    4.335975   2.259824   2.818190   3.202675   0.963604
     8  H    4.918032   2.245283   3.231703   3.500765   2.689257
     9  H    5.257939   2.246820   3.497721   0.963613   3.132772
    10  O    1.935472   4.609276   3.171516   5.684908   5.418224
    11  H    2.884602   5.363294   4.027851   6.496518   6.149435
    12  O    1.940081   4.582796   3.145283   5.285248   4.874650
    13  H    2.876269   5.405262   4.048012   6.061390   5.517100
    14  O    1.931190   4.592636   3.193898   4.699850   5.806362
    15  H    2.884834   5.216116   3.963977   5.064075   6.519029
                    6          7          8          9         10
     6  O    0.000000
     7  H    3.499527   0.000000
     8  H    0.963759   3.569662   0.000000
     9  H    2.794426   3.690093   3.611368   0.000000
    10  O    4.990578   5.428827   5.103938   6.518736   0.000000
    11  H    5.526182   6.211478   5.541813   7.287667   0.956997
    12  O    5.844366   4.353176   6.110298   6.232647   3.180300
    13  H    6.720585   4.878028   6.952055   6.998202   3.943958
    14  O    5.476000   5.733558   6.086019   5.584112   3.170534
    15  H    6.050681   6.475592   6.738753   5.885566   4.016620
                   11         12         13         14         15
    11  H    0.000000
    12  O    4.015198   0.000000
[...]
 ! A21   L(1,3,2,7,-2)         177.6312         -DE/DX =   -0.0003              !
 ! A22   L(1,10,11,8,-2)       173.1112         -DE/DX =    0.0                 !
 ! A23   L(1,12,13,7,-2)       180.4196         -DE/DX =    0.0                 !
 ! A24   L(1,14,15,9,-2)       179.9461         -DE/DX =    0.0                 !
 ! D1    D(10,1,2,4)          -143.0575         -DE/DX =    0.0001              !
 ! D2    D(10,1,2,5)            93.4253         -DE/DX =    0.0                 !
 ! D3    D(10,1,2,6)           -25.6103         -DE/DX =    0.0                 !
 ! D4    D(12,1,2,4)            96.9054         -DE/DX =    0.0                 !
 ! D5    D(12,1,2,5)           -26.6118         -DE/DX =    0.0                 !
 ! D6    D(12,1,2,6)          -145.6474         -DE/DX =   -0.0001              !
 ! D7    D(14,1,2,4)           -22.8714         -DE/DX =    0.0                 !
 ! D8    D(14,1,2,5)          -146.3887         -DE/DX =    0.0                 !
 ! D9    D(14,1,2,6)            94.5758         -DE/DX =   -0.0001              !
 ! D10   D(3,2,4,9)            165.9715         -DE/DX =    0.0                 !
 ! D11   D(5,2,4,9)            -73.0088         -DE/DX =    0.0                 !
 ! D12   D(6,2,4,9)             42.6913         -DE/DX =    0.0                 !
 ! D13   D(3,2,5,7)             37.0997         -DE/DX =    0.0                 !
 ! D14   D(4,2,5,7)            -82.0123         -DE/DX =    0.0                 !
 ! D15   D(6,2,5,7)            161.0005         -DE/DX =    0.0                 !
 ! D16   D(3,2,6,8)             88.4556         -DE/DX =    0.0                 !
 ! D17   D(4,2,6,8)           -153.5695         -DE/DX =    0.0                 !
 ! D18   D(5,2,6,8)            -32.2186         -DE/DX =    0.0                 !
 --------------------------------------------------------------------------------
 GradGradGradGradGradGradGradGradGradGradGradGradGradGradGradGradGradGrad

                          Input orientation:                          
 ---------------------------------------------------------------------
 Center     Atomic      Atomic             Coordinates (Angstroms)
 Number     Number       Type             X           Y           Z
 ---------------------------------------------------------------------
      1         40           0        1.390077   -0.001291   -0.011150
      2         14           0       -2.203866   -0.049835    0.017548
      3          8           0       -0.575983   -0.074070    0.010872
      4          8           0       -2.646428    1.401950    0.669721
      5          8           0       -2.782990   -1.364423    0.854426
      6          8           0       -2.904547   -0.149881   -1.477611
      7          1           0       -2.278769   -1.629643    1.631570
      8          1           0       -3.072137   -1.042706   -1.799502
      9          1           0       -3.568923    1.653468    0.550094
     10          8           0        2.026684   -0.880506   -1.613481
     11          1           0        2.431164   -1.200538   -2.419581
     12          8           0        2.016779   -0.940167    1.566824
     13          1           0        2.544907   -1.314871    2.271921
     14          8           0        1.983613    1.836080    0.019737
     15          1           0        2.182178    2.771952    0.046423
 ---------------------------------------------------------------------
                    Distance matrix (angstroms):
                    1          2          3          4          5
     1  Zr   0.000000
     2  Si   3.594385   0.000000
     3  O    1.967530   1.628077   0.000000
     4  O    4.327360   1.651929   2.626683   0.000000
     5  O    4.474578   1.662496   2.692114   2.775894   0.000000
     6  O    4.540527   1.654226   2.764696   2.661924   2.632164
     7  H    4.337106   2.259751   2.818856   3.201700   0.963605
     8  H    4.918750   2.245297   3.232104   3.500662   2.688948
     9  H    5.257842   2.246826   3.497548   0.963623   3.133365
    10  O    1.935395   4.609536   3.172181   5.679841   5.427496
    11  H    2.884891   5.361642   4.027277   6.488349   6.159008
    12  O    1.940167   4.583317   3.145397   5.294885   4.870861
    13  H    2.876028   5.406788   4.048689   6.074383   5.513460
    14  O    1.931106   4.592565   3.193788   4.695554   5.801761
    15  H    2.884721   5.215428   3.963402   5.057750   6.512708
                    6          7          8          9         10
     6  O    0.000000
     7  H    3.499758   0.000000
     8  H    0.963761   3.570180   0.000000
     9  H    2.793753   3.689567   3.610645   0.000000
    10  O    4.986914   5.443206   5.104790   6.512519   0.000000
    11  H    5.519148   6.227312   5.540372   7.277731   0.956985
    12  O    5.840599   4.351011   6.102436   6.241855   3.180881
    13  H    6.716603   4.876164   6.942747   7.011037   3.943803
    14  O    5.484542   5.725132   6.095707   5.580795   3.170031
    15  H    6.060904   6.464269   6.750324   5.880463   4.014961
                   11         12         13         14         15
    11  H    0.000000
    12  O    4.016333   0.000000
    13  H    4.694273   0.957332   0.000000
    14  O    3.920666   3.178385   3.913551   0.000000
    15  H    4.682291   4.014824   4.667605   0.957077   0.000000
 Stoichiometry    H6O7SiZr
 Framework group  C1[X(H6O7SiZr)]
 Deg. of freedom    39
 Full point group                 C1      NOp   1
 Largest Abelian subgroup         C1      NOp   1
 Largest concise Abelian subgroup C1      NOp   1
                         Standard orientation:                         
 ---------------------------------------------------------------------
 Center     Atomic      Atomic             Coordinates (Angstroms)
 Number     Number       Type             X           Y           Z
 ---------------------------------------------------------------------
      1         40           0       -1.390954    0.000226    0.011103
      2         14           0        2.203349    0.011909   -0.010231
      3          8           0        0.576090   -0.039594   -0.006939
      4          8           0        2.622866    1.471600   -0.659982
      5          8           0        2.806122   -1.291898   -0.847277
      6          8           0        2.902549   -0.077992    1.486266
      7          1           0        2.308004   -1.564691   -1.625735
      8          1           0        3.084410   -0.968230    1.807575
      9          1           0        3.540772    1.738404   -0.538192
     10          8           0       -2.016020   -0.891246    1.611204
     11          1           0       -2.416731   -1.218872    2.416134
     12          8           0       -1.998613   -0.947323   -1.569135
     13          1           0       -2.518947   -1.330062   -2.275708
     14          8           0       -2.015117    1.827431   -0.019102
     15          1           0       -2.229275    2.759874   -0.045226
 ---------------------------------------------------------------------
 Rotational constants (GHZ):           1.6228835           0.4698723           0.4667061

 **********************************************************************

            Population analysis using the SCF Density.

 **********************************************************************

 Orbital symmetries:
       Occupied  (A) (A) (A) (A) (A) (A) (A) (A) (A) (A) (A) (A)
                 (A) (A) (A) (A) (A) (A) (A) (A) (A) (A) (A) (A)
                 (A) (A) (A) (A) (A) (A) (A) (A) (A) (A) (A) (A)
                 (A) (A) (A) (A) (A) (A) (A) (A)
       Virtual   (A) (A) (A) (A) (A) (A) (A) (A) (A) (A) (A) (A)
                 (A) (A) (A) (A) (A) (A) (A) (A) (A) (A) (A) (A)
                 (A) (A) (A) (A) (A) (A) (A) (A) (A) (A) (A) (A)
                 (A) (A) (A) (A) (A) (A) (A) (A) (A) (A) (A) (A)
                 (A) (A) (A) (A) (A) (A) (A) (A) (A) (A) (A) (A)
                 (A) (A) (A) (A) (A) (A) (A) (A) (A) (A) (A) (A)
                 (A) (A) (A) (A) (A) (A) (A) (A) (A) (A) (A) (A)
                 (A) (A) (A) (A) (A) (A) (A) (A) (A) (A) (A) (A)
                 (A) (A) (A) (A) (A) (A) (A) (A) (A) (A) (A) (A)
                 (A) (A) (A) (A) (A) (A) (A) (A) (A) (A) (A) (A)
                 (A) (A) (A) (A) (A) (A) (A) (A) (A) (A) (A) (A)
                 (A) (A) (A) (A) (A) (A) (A) (A) (A) (A) (A) (A)
                 (A) (A) (A) (A) (A) (A) (A) (A) (A) (A) (A) (A)
                 (A) (A) (A) (A) (A) (A) (A) (A) (A) (A) (A) (A)
                 (A) (A) (A) (A) (A) (A) (A) (A) (A) (A) (A) (A)
                 (A) (A) (A) (A) (A) (A) (A) (A) (A) (A) (A) (A)
                 (A) (A) (A) (A) (A) (A) (A) (A) (A) (A) (A) (A)
                 (A) (A) (A) (A) (A) (A) (A) (A) (A) (A) (A) (A)
                 (A) (A) (A) (A) (A) (A)
 The electronic state is 1-A.
 Alpha  occ. eigenvalues --  -66.19983 -19.15207 -19.15153 -19.14889 -19.14421
 Alpha  occ. eigenvalues --  -19.14374 -19.14369 -19.13271  -5.34076  -3.70043
 Alpha  occ. eigenvalues --   -3.70036  -3.69994  -2.11303  -1.27582  -1.27516
 Alpha  occ. eigenvalues --   -1.27220  -1.02791  -0.99594  -0.99424  -0.96711
 Alpha  occ. eigenvalues --   -0.95489  -0.95478  -0.94157  -0.57490  -0.52287
 Alpha  occ. eigenvalues --   -0.51584  -0.50403  -0.49762  -0.49668  -0.45725
 Alpha  occ. eigenvalues --   -0.39650  -0.37884  -0.37279  -0.36107  -0.35696
 Alpha  occ. eigenvalues --   -0.34600  -0.34313  -0.33898  -0.33026  -0.32855
 Alpha  occ. eigenvalues --   -0.32103  -0.31376  -0.31289  -0.30644
 Alpha virt. eigenvalues --   -0.03003  -0.01297  -0.00840  -0.00602   0.00181
 Alpha virt. eigenvalues --    0.00276   0.01199   0.01341   0.01641   0.02154
 Alpha virt. eigenvalues --    0.02370   0.02906   0.03248   0.03284   0.03308
 Alpha virt. eigenvalues --    0.04185   0.04469   0.04593   0.05102   0.05795
 Alpha virt. eigenvalues --    0.06919   0.09002   0.09556   0.09673   0.09990
 Alpha virt. eigenvalues --    0.10222   0.11065   0.12369   0.13540   0.13857
 Alpha virt. eigenvalues --    0.14869   0.15344   0.15923   0.16399   0.17611
 Alpha virt. eigenvalues --    0.18197   0.18561   0.18629   0.19191   0.19463
 Alpha virt. eigenvalues --    0.20566   0.20735   0.20931   0.21980   0.22107
 Alpha virt. eigenvalues --    0.23129   0.24275   0.24955   0.26242   0.26292
 Alpha virt. eigenvalues --    0.27113   0.27582   0.28068   0.28237   0.28837
 Alpha virt. eigenvalues --    0.29142   0.29314   0.29862   0.30120   0.30304
 Alpha virt. eigenvalues --    0.31141   0.32328   0.33285   0.33649   0.34792
 Alpha virt. eigenvalues --    0.35586   0.36258   0.37455   0.38175   0.40635
 Alpha virt. eigenvalues --    0.42258   0.43623   0.44707   0.46775   0.47445
 Alpha virt. eigenvalues --    0.47724   0.49333   0.50097   0.51498   0.51858
 Alpha virt. eigenvalues --    0.53323   0.57603   0.58093   0.60495   0.60857
 Alpha virt. eigenvalues --    0.61048   0.62482   0.62799   0.64457   0.64726
 Alpha virt. eigenvalues --    0.65400   0.67719   0.71632   0.72250   0.73086
 Alpha virt. eigenvalues --    0.75493   0.76153   0.76719   0.77881   0.82281
 Alpha virt. eigenvalues --    0.85005   0.85932   0.96315   0.97998   0.99382
 Alpha virt. eigenvalues --    1.01459   1.02846   1.04916   1.05619   1.06458
 Alpha virt. eigenvalues --    1.07436   1.18643   1.19697   1.20407   1.21307
 Alpha virt. eigenvalues --    1.21707   1.22559   1.23235   1.23840   1.24686
 Alpha virt. eigenvalues --    1.25938   1.26310   1.27114   1.27677   1.28533
 Alpha virt. eigenvalues --    1.28953   1.30092   1.30752   1.32026   1.32587
 Alpha virt. eigenvalues --    1.33371   1.37133   1.42649   1.43644   1.46179
 Alpha virt. eigenvalues --    1.49738   1.53275   1.55880   1.59747   1.60708
 Alpha virt. eigenvalues --    1.62951   1.63491   1.63730   1.64778   1.68009
 Alpha virt. eigenvalues --    1.68769   1.71334   1.72231   1.72579   1.72698
 Alpha virt. eigenvalues --    1.73637   1.74623   1.75608   1.76466   1.77677
 Alpha virt. eigenvalues --    1.78853   1.80426   1.82778   1.83540   1.84318
 Alpha virt. eigenvalues --    1.85903   1.87779   1.90178   1.90569   1.91745
 Alpha virt. eigenvalues --    1.92086   1.93560   1.94759   1.96621   1.97025
 Alpha virt. eigenvalues --    1.98939   1.99378   2.01821   2.02516   2.05759
 Alpha virt. eigenvalues --    2.06972   2.07632   2.09984   2.14272   2.18094
 Alpha virt. eigenvalues --    2.18786   2.20907   2.22068   2.28151   2.32534
 Alpha virt. eigenvalues --    2.34966   2.41954   2.42575   2.43636   2.44842
 Alpha virt. eigenvalues --    2.51930   2.57519   2.58777   2.62703   2.63476
 Alpha virt. eigenvalues --    2.64404   2.66441   2.68019   2.69176   2.73196
 Alpha virt. eigenvalues --    2.77719   2.80250   2.80539   2.83692   2.87270
 Alpha virt. eigenvalues --    2.90095   2.90865   2.91157   2.92510   2.93754
 Alpha virt. eigenvalues --    3.02390   3.19972   3.47776   3.47998   3.52518
 Alpha virt. eigenvalues --    3.53359   3.56038   3.97450   4.10730   4.15126
 Alpha virt. eigenvalues --    4.17722  31.16200
          Condensed to atoms (all electrons):
               1          2          3          4          5          6
     1  Zr  10.423575   0.107207  -0.014875  -0.012383  -0.055344  -0.039259
     2  Si   0.107207  12.906986  -0.632980  -0.085058  -0.097360  -0.015645
     3  O   -0.014875  -0.632980   8.901127   0.141161   0.240814   0.107520
     4  O   -0.012383  -0.085058   0.141161   8.571957  -0.028484   0.015466
     5  O   -0.055344  -0.097360   0.240814  -0.028484   8.502164   0.036056
     6  O   -0.039259  -0.015645   0.107520   0.015466   0.036056   8.526208
     7  H   -0.002079   0.028433  -0.004062  -0.006944   0.244320   0.006532
     8  H    0.001196   0.064599  -0.022347   0.007027  -0.007208   0.231650
     9  H   -0.002305   0.038542   0.008311   0.221093  -0.005718  -0.005921
    10  O    0.038179  -0.020427  -0.022115   0.000735   0.000583   0.001943
    11  H   -0.087412   0.000901  -0.001028  -0.000000   0.000001   0.000016
    12  O    0.056229  -0.020741  -0.020765   0.000294   0.002652   0.000631
    13  H   -0.083703   0.000888  -0.000902  -0.000004   0.000002   0.000001
    14  O    0.032493  -0.028441  -0.027261   0.002617   0.001033   0.000168
    15  H   -0.089853   0.000752  -0.001113   0.000050   0.000003  -0.000000
               7          8          9         10         11         12
     1  Zr  -0.002079   0.001196  -0.002305   0.038179  -0.087412   0.056229
     2  Si   0.028433   0.064599   0.038542  -0.020427   0.000901  -0.020741
     3  O   -0.004062  -0.022347   0.008311  -0.022115  -0.001028  -0.020765
     4  O   -0.006944   0.007027   0.221093   0.000735  -0.000000   0.000294
     5  O    0.244320  -0.007208  -0.005718   0.000583   0.000001   0.002652
     6  O    0.006532   0.231650  -0.005921   0.001943   0.000016   0.000631
     7  H    0.370381   0.000060   0.000100   0.000016   0.000000  -0.000223
     8  H    0.000060   0.358562   0.000050   0.000029   0.000000  -0.000012
     9  H    0.000100   0.000050   0.372240   0.000001   0.000000  -0.000006
    10  O    0.000016   0.000029   0.000001   8.599571   0.327306  -0.035364
    11  H    0.000000   0.000000   0.000000   0.327306   0.381853  -0.000683
    12  O   -0.000223  -0.000012  -0.000006  -0.035364  -0.000683   8.576520
    13  H    0.000001   0.000000  -0.000000  -0.000984  -0.000008   0.323157
    14  O   -0.000019  -0.000007  -0.000052  -0.034231  -0.001262  -0.035638
    15  H    0.000000  -0.000000  -0.000000  -0.000676  -0.000008  -0.000742
              13         14         15
     1  Zr  -0.083703   0.032493  -0.089853
     2  Si   0.000888  -0.028441   0.000752
     3  O   -0.000902  -0.027261  -0.001113
     4  O   -0.000004   0.002617   0.000050
     5  O    0.000002   0.001033   0.000003
     6  O    0.000001   0.000168  -0.000000
     7  H    0.000001  -0.000019   0.000000
     8  H    0.000000  -0.000007  -0.000000
     9  H   -0.000000  -0.000052  -0.000000
    10  O   -0.000984  -0.034231  -0.000676
    11  H   -0.000008  -0.001262  -0.000008
    12  O    0.323157  -0.035638  -0.000742
    13  H    0.381719  -0.001259  -0.000009
    14  O   -0.001259   8.608225   0.331992
    15  H   -0.000009   0.331992   0.379139
 Mulliken charges:
               1
     1  Zr   1.728334
     2  Si   1.752344
     3  O   -0.651485
     4  O   -0.827527
     5  O   -0.833514
     6  O   -0.865366
     7  H    0.363483
     8  H    0.366401
     9  H    0.373665
    10  O   -0.854565
    11  H    0.380327
    12  O   -0.845308
    13  H    0.381101
    14  O   -0.848357
    15  H    0.380467
 Sum of Mulliken charges =  -0.00000
 Mulliken charges with hydrogens summed into heavy atoms:
               1
     1  Zr   1.728334
     2  Si   1.752344
     3  O   -0.651485
     4  O   -0.453862
     5  O   -0.470030
     6  O   -0.498965
    10  O   -0.474238
    12  O   -0.464207
    14  O   -0.467891
 Electronic spatial extent (au):  <R**2>=           2272.8601
 Charge=              0.0000 electrons
 Dipole moment (field-independent basis, Debye):
    X=             -2.0387    Y=             -0.8560    Z=             -0.2977  Tot=              2.2310
 Quadrupole moment (field-independent basis, Debye-Ang):
   XX=            -68.7830   YY=            -69.1193   ZZ=            -67.9197
   XY=              0.1666   XZ=             -0.2452   YZ=             -0.6184
 Traceless Quadrupole moment (field-independent basis, Debye-Ang):
   XX=             -0.1756   YY=             -0.5120   ZZ=              0.6876
   XY=              0.1666   XZ=             -0.2452   YZ=             -0.6184
 Octapole moment (field-independent basis, Debye-Ang**2):
  XXX=            -43.8880  YYY=             17.4497  ZZZ=             -1.1478  XYY=            -24.5148
  XXY=             10.0498  XXZ=             -0.6163  XZZ=            -31.1651  YZZ=            -25.7575
  YYZ=              1.5261  XYZ=             -7.6505
 Hexadecapole moment (field-independent basis, Debye-Ang**3):
 XXXX=          -1889.4329 YYYY=           -366.5259 ZZZZ=           -345.8134 XXXY=            102.8488
 XXXZ=             12.1728 YYYX=            -38.0186 YYYZ=              3.9861 ZZZX=            -15.7946
 ZZZY=             -2.3926 XXYY=           -339.5395 XXZZ=           -341.6262 YYZZ=           -113.8079
 XXYZ=            -34.9702 YYXZ=             11.5777 ZZXY=              6.2040
 N-N= 6.304905131170D+02 E-N=-3.298487617389D+03  KE= 8.306832973001D+02
 1\1\GINC-GRA378\FOpt\RB3LYP\Gen\H6O7Si1Zr1\SARASHS\11-Aug-2020\0\\#n B
 3LYP/Gen Pseudo=cards EmpiricalDispersion=GD3 Opt=modredundant\\Title\
 \0,1\Zr,1.390077323,-0.0012905241,-0.011150082\Si,-2.2038655433,-0.049
 8345931,0.0175475102\O,-0.5759825021,-0.0740702536,0.0108719254\O,-2.6
 464281276,1.4019501052,0.669720701\O,-2.7829903163,-1.3644232953,0.854
 4259677\O,-2.9045473057,-0.1498812181,-1.477611456\H,-2.2787685372,-1.
 6296426942,1.631570473\H,-3.0721365547,-1.042706153,-1.7995019266\H,-3
 .5689229021,1.6534681409,0.5500944195\O,2.0266839669,-0.8805057049,-1.
 6134814123\H,2.4311636668,-1.2005382087,-2.4195806979\O,2.0167791657,-
 0.9401672745,1.5668241632\H,2.5449074297,-1.3148709249,2.2719209317\O,
 1.9836125628,1.8360803169,0.0197365657\H,2.1821776741,2.7719522814,0.0
 464229174\\Version=ES64L-G16RevB.01\State=1-A\HF=-867.127741\RMSD=1.93
 4e-09\RMSF=1.009e-04\Dipole=0.8078515,-0.3234032,0.1151153\Quadrupole=
 -0.1272918,-0.3856716,0.5129634,-0.1184908,-0.1887811,0.4559311\PG=C01
  [X(H6O7Si1Zr1)]\\@


 MISERY NO LONGER LOVES COMPANY.  NOWADAYS IT INSISTS ON IT.

                                              -- BAKER'S LAW
 Job cpu time:       0 days  1 hours 36 minutes 46.9 seconds.
 Elapsed time:       0 days  0 hours  7 minutes  0.9 seconds.
 File lengths (MBytes):  RWF=     48 Int=      0 D2E=      0 Chk=      6 Scr=      1
 Normal termination of Gaussian 16 at Tue Aug 11 18:15:35 2020.
