 Entering Gaussian System, Link 0=g16
 Initial command:
 /opt/software/gaussian/g16.b01/l1.exe "/localscratch/sarashs.35132322.0/Gau-27716.inp" -scrdir="/localscratch/sarashs.35132322.0/"
 Entering Link 1 = /opt/software/gaussian/g16.b01/l1.exe PID=     27721.
  
 Copyright (c) 1988-2017, Gaussian, Inc.  All Rights Reserved.
  
 This is part of the Gaussian(R) 16 program.  It is based on
 the Gaussian(R) 09 system (copyright 2009, Gaussian, Inc.),
 the Gaussian(R) 03 system (copyright 2003, Gaussian, Inc.),
 the Gaussian(R) 98 system (copyright 1998, Gaussian, Inc.),
 the Gaussian(R) 94 system (copyright 1995, Gaussian, Inc.),
 the Gaussian 92(TM) system (copyright 1992, Gaussian, Inc.),
 the Gaussian 90(TM) system (copyright 1990, Gaussian, Inc.),
 the Gaussian 88(TM) system (copyright 1988, Gaussian, Inc.),
 the Gaussian 86(TM) system (copyright 1986, Carnegie Mellon
 University), and the Gaussian 82(TM) system (copyright 1983,
 Carnegie Mellon University). Gaussian is a federally registered
 trademark of Gaussian, Inc.
  
 This software contains proprietary and confidential information,
 including trade secrets, belonging to Gaussian, Inc.
  
 This software is provided under written license and may be
 used, copied, transmitted, or stored only in accord with that
 written license.
  
 The following legend is applicable only to US Government
 contracts under FAR:
  
                    RESTRICTED RIGHTS LEGEND
  
 Use, reproduction and disclosure by the US Government is
 subject to restrictions as set forth in subparagraphs (a)
 and (c) of the Commercial Computer Software - Restricted
 Rights clause in FAR 52.227-19.
  
 Gaussian, Inc.
 340 Quinnipiac St., Bldg. 40, Wallingford CT 06492
  
  
 ---------------------------------------------------------------
 Warning -- This program may not be used in any manner that
 competes with the business of Gaussian, Inc. or will provide
 assistance to any competitor of Gaussian, Inc.  The licensee
 of this program is prohibited from giving any competitor of
 Gaussian, Inc. access to this program.  By using this program,
 the user acknowledges that Gaussian, Inc. is engaged in the
 business of creating and licensing software in the field of
 computational chemistry and represents and warrants to the
 licensee that it is not a competitor of Gaussian, Inc. and that
 it will not use this program in any manner prohibited above.
 ---------------------------------------------------------------
  

 Cite this work as:
 Gaussian 16, Revision B.01,
 M. J. Frisch, G. W. Trucks, H. B. Schlegel, G. E. Scuseria, 
 M. A. Robb, J. R. Cheeseman, G. Scalmani, V. Barone, 
 G. A. Petersson, H. Nakatsuji, X. Li, M. Caricato, A. V. Marenich, 
 J. Bloino, B. G. Janesko, R. Gomperts, B. Mennucci, H. P. Hratchian, 
 J. V. Ortiz, A. F. Izmaylov, J. L. Sonnenberg, D. Williams-Young, 
 F. Ding, F. Lipparini, F. Egidi, J. Goings, B. Peng, A. Petrone, 
 T. Henderson, D. Ranasinghe, V. G. Zakrzewski, J. Gao, N. Rega, 
 G. Zheng, W. Liang, M. Hada, M. Ehara, K. Toyota, R. Fukuda, 
 J. Hasegawa, M. Ishida, T. Nakajima, Y. Honda, O. Kitao, H. Nakai, 
 T. Vreven, K. Throssell, J. A. Montgomery, Jr., J. E. Peralta, 
 F. Ogliaro, M. J. Bearpark, J. J. Heyd, E. N. Brothers, K. N. Kudin, 
 V. N. Staroverov, T. A. Keith, R. Kobayashi, J. Normand, 
 K. Raghavachari, A. P. Rendell, J. C. Burant, S. S. Iyengar, 
 J. Tomasi, M. Cossi, J. M. Millam, M. Klene, C. Adamo, R. Cammi, 
 J. W. Ochterski, R. L. Martin, K. Morokuma, O. Farkas, 
 J. B. Foresman, and D. J. Fox, Gaussian, Inc., Wallingford CT, 2016.
 
 ******************************************
 Gaussian 16:  ES64L-G16RevB.01 20-Dec-2017
                15-Jul-2020 
 ******************************************
 %NProcShared=16
 Will use up to   16 processors via shared memory.
 ------------------------------------------------------------------
 #n B3LYP/Gen Pseudo=cards EmpiricalDispersion=GD3 Opt=modredundant
 ------------------------------------------------------------------
 1/18=120,19=15,26=3,38=1/1,3;
 2/9=110,12=2,17=6,18=5,40=1/2;
 3/5=7,11=2,16=1,17=8,25=1,30=1,71=1,74=-5,124=31/1,2,3;
 4//1;
 5/5=2,38=5/2;
 6/7=2,8=2,9=2,10=2,28=1/1;
 7//1,2,3,16;
 1/18=20,19=15,26=3/3(2);
 2/9=110/2;
 99//99;
 2/9=110/2;
 3/5=7,6=1,11=2,16=1,17=8,25=1,30=1,71=1,74=-5,82=7,124=31/1,2,3;
 4/5=5,16=3,69=1/1;
 5/5=2,38=5/2;
 7//1,2,3,16;
 1/18=20,19=15,26=3/3(-5);
 2/9=110/2;
 6/7=2,8=2,9=2,10=2,19=2,28=1/1;
 99/9=1/99;
 -----
 Title
 -----
 Symbolic Z-matrix:
 Charge =  0 Multiplicity = 1
 Zr                    1.37839  -0.01367  -0.01029 
 Si                   -2.14686   0.1391    0.00557 
 O                    -0.57498  -0.28442   0.01654 
 O                    -2.2339    1.62609   0.72266 
 O                    -3.05019  -1.02736   0.77041 
 O                    -2.81679   0.28597  -1.50021 
 H                    -2.63368  -1.46073   1.52345 
 H                    -3.19282  -0.52173  -1.86779 
 H                    -3.06254   2.10364   0.60498 
 O                     2.15239  -1.31312  -1.2196 
 H                     2.65751  -1.85105  -1.82887 
 O                     2.04402  -0.29207   1.78758 
 H                     2.51011  -0.3161    2.62313 
 O                     1.78195   1.7752   -0.6111 
 H                     1.91399   2.68442  -0.87911 
 
 The following ModRedundant input section has been read:
 A       1       2       3 F                                                   
 

 GradGradGradGradGradGradGradGradGradGradGradGradGradGradGradGradGradGrad
 Berny optimization.
 Initialization pass.
                           ----------------------------
                           !    Initial Parameters    !
                           ! (Angstroms and Degrees)  !
 --------------------------                            --------------------------
 ! Name  Definition              Value          Derivative Info.                !
 --------------------------------------------------------------------------------
 ! R1    R(1,3)                  1.9722         estimate D2E/DX2                !
 ! R2    R(1,10)                 1.9365         estimate D2E/DX2                !
 ! R3    R(1,12)                 1.9372         estimate D2E/DX2                !
 ! R4    R(1,14)                 1.9297         estimate D2E/DX2                !
 ! R5    R(2,3)                  1.628          estimate D2E/DX2                !
 ! R6    R(2,4)                  1.6532         estimate D2E/DX2                !
 ! R7    R(2,5)                  1.6618         estimate D2E/DX2                !
 ! R8    R(2,6)                  1.6546         estimate D2E/DX2                !
 ! R9    R(4,9)                  0.9636         estimate D2E/DX2                !
 ! R10   R(5,7)                  0.9635         estimate D2E/DX2                !
 ! R11   R(6,8)                  0.9638         estimate D2E/DX2                !
 ! R12   R(10,11)                0.9569         estimate D2E/DX2                !
 ! R13   R(12,13)                0.9571         estimate D2E/DX2                !
 ! R14   R(14,15)                0.9571         estimate D2E/DX2                !
 ! A1    A(3,1,10)             108.1944         estimate D2E/DX2                !
 ! A2    A(3,1,12)             107.9362         estimate D2E/DX2                !
 ! A3    A(3,1,14)             109.793          estimate D2E/DX2                !
 ! A4    A(10,1,12)            110.2299         estimate D2E/DX2                !
 ! A5    A(10,1,14)            110.1226         estimate D2E/DX2                !
 ! A6    A(12,1,14)            110.5061         estimate D2E/DX2                !
 ! A7    A(1,2,3)               12.6144         Frozen                          !
 ! A8    A(3,2,4)              106.3746         estimate D2E/DX2                !
 ! A9    A(3,2,5)              109.8248         estimate D2E/DX2                !
 ! A10   A(3,2,6)              114.8447         estimate D2E/DX2                !
 ! A11   A(4,2,5)              113.7725         estimate D2E/DX2                !
 ! A12   A(4,2,6)              107.0731         estimate D2E/DX2                !
 ! A13   A(5,2,6)              105.1331         estimate D2E/DX2                !
 ! A14   A(1,3,2)              157.0003         estimate D2E/DX2                !
 ! A15   A(2,4,9)              115.9809         estimate D2E/DX2                !
 ! A16   A(2,5,7)              116.1318         estimate D2E/DX2                !
 ! A17   A(2,6,8)              115.5097         estimate D2E/DX2                !
 ! A18   L(1,10,11,8,-1)       187.0574         estimate D2E/DX2                !
 ! A19   L(1,12,13,7,-1)       190.4779         estimate D2E/DX2                !
 ! A20   L(1,14,15,4,-1)       175.4148         estimate D2E/DX2                !
 ! A21   L(1,10,11,8,-2)       172.492          estimate D2E/DX2                !
 ! A22   L(1,12,13,7,-2)       184.1947         estimate D2E/DX2                !
 ! A23   L(1,14,15,4,-2)       179.2114         estimate D2E/DX2                !
 ! D1    D(10,1,3,2)          -136.4111         estimate D2E/DX2                !
 ! D2    D(12,1,3,2)           104.3162         estimate D2E/DX2                !
 ! D3    D(14,1,3,2)           -16.2019         estimate D2E/DX2                !
 ! D4    D(4,2,3,1)            -29.9126         estimate D2E/DX2                !
 ! D5    D(5,2,3,1)           -153.4546         estimate D2E/DX2                !
 ! D6    D(6,2,3,1)             88.3336         estimate D2E/DX2                !
 ! D7    D(3,2,4,9)            165.9161         estimate D2E/DX2                !
 ! D8    D(5,2,4,9)            -73.0407         estimate D2E/DX2                !
 ! D9    D(6,2,4,9)             42.6619         estimate D2E/DX2                !
 ! D10   D(3,2,5,7)             35.3296         estimate D2E/DX2                !
 ! D11   D(4,2,5,7)            -83.7653         estimate D2E/DX2                !
 ! D12   D(6,2,5,7)            159.3973         estimate D2E/DX2                !
 ! D13   D(3,2,6,8)             88.6229         estimate D2E/DX2                !
 ! D14   D(4,2,6,8)           -153.5248         estimate D2E/DX2                !
 ! D15   D(5,2,6,8)            -32.1994         estimate D2E/DX2                !
 --------------------------------------------------------------------------------
 Trust Radius=3.00D-01 FncErr=1.00D-07 GrdErr=1.00D-06 EigMax=2.50D+02 EigMin=1.00D-04
 Number of steps in this run=     62 maximum allowed number of steps=    100.
 GradGradGradGradGradGradGradGradGradGradGradGradGradGradGradGradGradGrad

                          Input orientation:                          
 ---------------------------------------------------------------------
 Center     Atomic      Atomic             Coordinates (Angstroms)
 Number     Number       Type             X           Y           Z
 ---------------------------------------------------------------------
      1         40           0        1.378390   -0.013670   -0.010290
      2         14           0       -2.146860    0.139100    0.005570
      3          8           0       -0.574980   -0.284420    0.016540
      4          8           0       -2.233900    1.626090    0.722660
      5          8           0       -3.050190   -1.027360    0.770410
      6          8           0       -2.816790    0.285970   -1.500210
      7          1           0       -2.633680   -1.460730    1.523450
      8          1           0       -3.192820   -0.521730   -1.867790
      9          1           0       -3.062540    2.103640    0.604980
     10          8           0        2.152390   -1.313120   -1.219600
     11          1           0        2.657510   -1.851050   -1.828870
     12          8           0        2.044020   -0.292070    1.787580
     13          1           0        2.510110   -0.316100    2.623130
     14          8           0        1.781950    1.775200   -0.611100
     15          1           0        1.913990    2.684420   -0.879110
 ---------------------------------------------------------------------
                    Distance matrix (angstroms):
                    1          2          3          4          5
     1  Zr   0.000000
     2  Si   3.528594   0.000000
     3  O    1.972227   1.627973   0.000000
     4  O    4.034187   1.653159   2.626913   0.000000
     5  O    4.609705   1.661811   2.692015   2.776582   0.000000
     6  O    4.461971   1.654615   2.766150   2.660232   2.633444
     7  H    4.532444   2.258409   2.809400   3.213961   0.963514
     8  H    4.960281   2.245040   3.234208   3.499013   2.690001
     9  H    4.958167   2.248817   3.498149   0.963611   3.135392
    10  O    1.936512   4.700376   3.166198   5.625911   5.577512
    11  H    2.884328   5.514330   4.038423   6.521250   6.325548
    12  O    1.937242   4.574379   3.161614   4.807701   5.246548
    13  H    2.882214   5.361548   4.038947   5.467131   5.903846
    14  O    1.929738   4.300308   3.192348   4.234171   5.754345
    15  H    2.884685   4.873583   3.976326   4.570637   6.414149
                    6          7          8          9         10
     6  O    0.000000
     7  H    3.496714   0.000000
     8  H    0.963791   3.562986   0.000000
     9  H    2.792157   3.705704   3.608896   0.000000
    10  O    5.227674   5.518385   5.442216   6.496063   0.000000
    11  H    5.885816   6.275914   5.999581   7.367644   0.956935
    12  O    5.896708   4.828707   6.390537   5.763239   3.177644
    13  H    6.763156   5.383126   7.261822   6.401758   3.986049
    14  O    4.914950   5.875826   5.621698   5.005578   3.169419
    15  H    5.340282   6.605745   6.110351   5.225484   4.019091
                   11         12         13         14         15
    11  H    0.000000
    12  O    3.985662   0.000000
    13  H    4.711486   0.957059   0.000000
    14  O    3.924189   3.177413   3.919693   0.000000
    15  H    4.693118   3.998454   4.650179   0.957050   0.000000
 Stoichiometry    H6O7SiZr
 Framework group  C1[X(H6O7SiZr)]
 Deg. of freedom    39
 Full point group                 C1      NOp   1
 Largest Abelian subgroup         C1      NOp   1
 Largest concise Abelian subgroup C1      NOp   1
                         Standard orientation:                         
 ---------------------------------------------------------------------
 Center     Atomic      Atomic             Coordinates (Angstroms)
 Number     Number       Type             X           Y           Z
 ---------------------------------------------------------------------
      1         40           0        1.366250   -0.018881   -0.011113
      2         14           0       -2.162225   -0.035158    0.012826
      3          8           0       -0.571971   -0.383352    0.000694
      4          8           0       -2.318021    1.404527    0.810303
      5          8           0       -3.007158   -1.283398    0.712540
      6          8           0       -2.842189    0.161854   -1.482696
      7          1           0       -2.568617   -1.737018    1.440736
      8          1           0       -3.180337   -0.641497   -1.894005
      9          1           0       -3.168716    1.847822    0.718902
     10          8           0        2.198068   -1.211885   -1.289744
     11          1           0        2.726638   -1.691012   -1.927533
     12          8           0        2.048910   -0.363267    1.768853
     13          1           0        2.517729   -0.410781    2.601867
     14          8           0        1.682815    1.817367   -0.512980
     15          1           0        1.770815    2.745145   -0.730762
 ---------------------------------------------------------------------
 Rotational constants (GHZ):           1.6370991           0.4820759           0.4799092
 General basis read from cards:  (5D, 7F)
 ======================================================================================================
                                       Pseudopotential Parameters
 ======================================================================================================
  Center     Atomic      Valence      Angular      Power
  Number     Number     Electrons     Momentum     of R      Exponent        Coefficient   SO-Coeffient
 ======================================================================================================
    1         40           12
                                      G and up 
                                                     2        1.0000000        0.00000000    0.00000000
                                      S - G
                                                     2        8.6365280      150.24299400    0.00000000
                                                     2        3.7176390       18.78003600    0.00000000
                                      P - G
                                                     2        7.6267280       33.19279100    0.00000000
                                                     2        7.4532070       66.38903900    0.00000000
                                                     2        3.3583890        4.62072600    0.00000000
                                                     2        3.2297380        9.26027000    0.00000000
                                      D - G
                                                     2        5.9380860       13.99338300    0.00000000
                                                     2        5.8255440       20.99588200    0.00000000
                                                     2        2.2050190        2.28516600    0.00000000
                                                     2        2.2062920        3.44126000    0.00000000
                                      F - G
                                                     2        4.8002150       -5.23932000    0.00000000
                                                     2        4.7989920       -6.98742400    0.00000000
    2         14
                                   No pseudopotential on this center.
    3          8
                                   No pseudopotential on this center.
    4          8
                                   No pseudopotential on this center.
    5          8
                                   No pseudopotential on this center.
    6          8
                                   No pseudopotential on this center.
    7          1
                                   No pseudopotential on this center.
    8          1
                                   No pseudopotential on this center.
    9          1
                                   No pseudopotential on this center.
   10          8
                                   No pseudopotential on this center.
   11          1
                                   No pseudopotential on this center.
   12          8
                                   No pseudopotential on this center.
   13          1
                                   No pseudopotential on this center.
   14          8
                                   No pseudopotential on this center.
   15          1
                                   No pseudopotential on this center.
 ======================================================================================================
 There are   300 symmetry adapted cartesian basis functions of A   symmetry.
 There are   266 symmetry adapted basis functions of A   symmetry.
   266 basis functions,   576 primitive gaussians,   300 cartesian basis functions
    44 alpha electrons       44 beta electrons
       nuclear repulsion energy       633.7016935470 Hartrees.
 NAtoms=   15 NActive=   15 NUniq=   15 SFac= 1.00D+00 NAtFMM=   60 NAOKFM=F Big=F
 Integral buffers will be    131072 words long.
 Raffenetti 2 integral format.
 Two-electron integral symmetry is turned on.
 Nuclear repulsion after empirical dispersion term =      633.6914245200 Hartrees.
 One-electron integrals computed using PRISM.
 PrsmSu:  requested number of processors reduced to:   4 ShMem   1 Linda.
   1 Symmetry operations used in ECPInt.
 ECPInt:  NShTT=    3321 NPrTT=   20810 LenC2=    3177 LenP2D=   15033.
 LDataN:  DoStor=T MaxTD1= 8 Len=  415
 NBasis=   266 RedAO= T EigKep=  1.04D-04  NBF=   266
 NBsUse=   266 1.00D-06 EigRej= -1.00D+00 NBFU=   266
 Defaulting to unpruned grid for atomic number  40.
 ExpMin= 1.01D-02 ExpMax= 1.61D+04 ExpMxC= 2.43D+03 IAcc=3 IRadAn=         5 AccDes= 0.00D+00
 Harris functional with IExCor=  402 and IRadAn=       5 diagonalized for initial guess.
 HarFok:  IExCor=  402 AccDes= 0.00D+00 IRadAn=         5 IDoV= 1 UseB2=F ITyADJ=14
 ICtDFT=  3500011 ScaDFX=  1.000000  1.000000  1.000000  1.000000
 Defaulting to unpruned grid for atomic number  40.
 FoFCou: FMM=F IPFlag=           0 FMFlag=      100000 FMFlg1=           0
         NFxFlg=           0 DoJE=T BraDBF=F KetDBF=T FulRan=T
         wScrn=  0.000000 ICntrl=       500 IOpCl=  0 I1Cent=   200000004 NGrid=           0
         NMat0=    1 NMatS0=      1 NMatT0=    0 NMatD0=    1 NMtDS0=    0 NMtDT0=    0
 Petite list used in FoFCou.
 Requested convergence on RMS density matrix=1.00D-08 within 128 cycles.
 Requested convergence on MAX density matrix=1.00D-06.
 Requested convergence on             energy=1.00D-06.
 No special actions if energy rises.
 Defaulting to unpruned grid for atomic number  40.
 Defaulting to unpruned grid for atomic number  40.
 Defaulting to unpruned grid for atomic number  40.
 Defaulting to unpruned grid for atomic number  40.
 Defaulting to unpruned grid for atomic number  40.
 Defaulting to unpruned grid for atomic number  40.
 Defaulting to unpruned grid for atomic number  40.
 Defaulting to unpruned grid for atomic number  40.
 Defaulting to unpruned grid for atomic number  40.
 Defaulting to unpruned grid for atomic number  40.
 Defaulting to unpruned grid for atomic number  40.
 Defaulting to unpruned grid for atomic number  40.
 Defaulting to unpruned grid for atomic number  40.
 Defaulting to unpruned grid for atomic number  40.
 Defaulting to unpruned grid for atomic number  40.
 Defaulting to unpruned grid for atomic number  40.
 SCF Done:  E(RB3LYP) =  -867.127797840     A.U. after   13 cycles
            NFock= 13  Conv=0.37D-08     -V/T= 2.0439

 **********************************************************************

            Population analysis using the SCF Density.

 **********************************************************************

 Orbital symmetries:
       Occupied  (A) (A) (A) (A) (A) (A) (A) (A) (A) (A) (A) (A)
                 (A) (A) (A) (A) (A) (A) (A) (A) (A) (A) (A) (A)
                 (A) (A) (A) (A) (A) (A) (A) (A) (A) (A) (A) (A)
                 (A) (A) (A) (A) (A) (A) (A) (A)
       Virtual   (A) (A) (A) (A) (A) (A) (A) (A) (A) (A) (A) (A)
                 (A) (A) (A) (A) (A) (A) (A) (A) (A) (A) (A) (A)
                 (A) (A) (A) (A) (A) (A) (A) (A) (A) (A) (A) (A)
                 (A) (A) (A) (A) (A) (A) (A) (A) (A) (A) (A) (A)
                 (A) (A) (A) (A) (A) (A) (A) (A) (A) (A) (A) (A)
                 (A) (A) (A) (A) (A) (A) (A) (A) (A) (A) (A) (A)
                 (A) (A) (A) (A) (A) (A) (A) (A) (A) (A) (A) (A)
                 (A) (A) (A) (A) (A) (A) (A) (A) (A) (A) (A) (A)
                 (A) (A) (A) (A) (A) (A) (A) (A) (A) (A) (A) (A)
                 (A) (A) (A) (A) (A) (A) (A) (A) (A) (A) (A) (A)
                 (A) (A) (A) (A) (A) (A) (A) (A) (A) (A) (A) (A)
                 (A) (A) (A) (A) (A) (A) (A) (A) (A) (A) (A) (A)
                 (A) (A) (A) (A) (A) (A) (A) (A) (A) (A) (A) (A)
                 (A) (A) (A) (A) (A) (A) (A) (A) (A) (A) (A) (A)
                 (A) (A) (A) (A) (A) (A) (A) (A) (A) (A) (A) (A)
                 (A) (A) (A) (A) (A) (A) (A) (A) (A) (A) (A) (A)
                 (A) (A) (A) (A) (A) (A) (A) (A) (A) (A) (A) (A)
                 (A) (A) (A) (A) (A) (A) (A) (A) (A) (A) (A) (A)
                 (A) (A) (A) (A) (A) (A)
 The electronic state is 1-A.
 Alpha  occ. eigenvalues --  -66.19958 -19.15206 -19.15181 -19.15000 -19.14354
 Alpha  occ. eigenvalues --  -19.14230 -19.14163 -19.13228  -5.34062  -3.70027
 Alpha  occ. eigenvalues --   -3.70020  -3.69983  -2.11163  -1.27477  -1.27367
 Alpha  occ. eigenvalues --   -1.27067  -1.02826  -0.99650  -0.99455  -0.96583
 Alpha  occ. eigenvalues --   -0.95375  -0.95310  -0.94141  -0.57485  -0.52308
 Alpha  occ. eigenvalues --   -0.51629  -0.50307  -0.49628  -0.49567  -0.45605
 Alpha  occ. eigenvalues --   -0.39620  -0.37734  -0.37323  -0.36045  -0.35615
 Alpha  occ. eigenvalues --   -0.34685  -0.34243  -0.33969  -0.32880  -0.32747
 Alpha  occ. eigenvalues --   -0.32024  -0.31254  -0.31198  -0.30717
 Alpha virt. eigenvalues --   -0.02896  -0.01292  -0.00681  -0.00541   0.00332
 Alpha virt. eigenvalues --    0.00418   0.01065   0.01229   0.01795   0.02372
 Alpha virt. eigenvalues --    0.02423   0.03001   0.03204   0.03316   0.03398
 Alpha virt. eigenvalues --    0.04277   0.04528   0.04651   0.05372   0.05744
 Alpha virt. eigenvalues --    0.06743   0.09120   0.09616   0.09864   0.10033
 Alpha virt. eigenvalues --    0.10209   0.11389   0.12445   0.13229   0.13845
 Alpha virt. eigenvalues --    0.14717   0.15499   0.16040   0.16485   0.17955
 Alpha virt. eigenvalues --    0.18129   0.18316   0.19153   0.19501   0.19872
 Alpha virt. eigenvalues --    0.20273   0.20436   0.21356   0.21795   0.22528
 Alpha virt. eigenvalues --    0.23592   0.24406   0.25162   0.26264   0.26631
 Alpha virt. eigenvalues --    0.27227   0.27403   0.27889   0.28366   0.28612
 Alpha virt. eigenvalues --    0.29029   0.29539   0.29763   0.29885   0.30906
 Alpha virt. eigenvalues --    0.31179   0.33005   0.34150   0.34642   0.35455
 Alpha virt. eigenvalues --    0.35733   0.36283   0.37025   0.38132   0.39145
 Alpha virt. eigenvalues --    0.41994   0.44101   0.44233   0.46723   0.47907
 Alpha virt. eigenvalues --    0.48702   0.49255   0.50325   0.51854   0.53052
 Alpha virt. eigenvalues --    0.54921   0.57060   0.58199   0.59909   0.60725
 Alpha virt. eigenvalues --    0.61669   0.62300   0.62629   0.64885   0.65657
 Alpha virt. eigenvalues --    0.67024   0.67930   0.69816   0.72607   0.73807
 Alpha virt. eigenvalues --    0.74543   0.75797   0.77486   0.78764   0.80905
 Alpha virt. eigenvalues --    0.85703   0.85794   0.96175   0.97789   0.98679
 Alpha virt. eigenvalues --    1.01805   1.02556   1.04405   1.05861   1.06625
 Alpha virt. eigenvalues --    1.07845   1.18754   1.19745   1.20662   1.21175
 Alpha virt. eigenvalues --    1.21557   1.22966   1.23586   1.23921   1.24353
 Alpha virt. eigenvalues --    1.25723   1.26733   1.28117   1.28651   1.28962
 Alpha virt. eigenvalues --    1.29627   1.30784   1.31306   1.31598   1.33017
 Alpha virt. eigenvalues --    1.33780   1.36758   1.42929   1.43359   1.45757
 Alpha virt. eigenvalues --    1.48810   1.52510   1.56569   1.59779   1.61037
 Alpha virt. eigenvalues --    1.61771   1.63168   1.63728   1.64793   1.67504
 Alpha virt. eigenvalues --    1.70058   1.70822   1.72245   1.72996   1.73122
 Alpha virt. eigenvalues --    1.73799   1.74233   1.75317   1.76833   1.77536
 Alpha virt. eigenvalues --    1.79627   1.80521   1.83016   1.83382   1.84534
 Alpha virt. eigenvalues --    1.86708   1.87453   1.91013   1.91209   1.92032
 Alpha virt. eigenvalues --    1.93166   1.94103   1.95434   1.96139   1.97262
 Alpha virt. eigenvalues --    1.98953   2.00014   2.00929   2.02324   2.07029
 Alpha virt. eigenvalues --    2.08462   2.09011   2.09860   2.13876   2.17425
 Alpha virt. eigenvalues --    2.19494   2.20965   2.22062   2.26197   2.31725
 Alpha virt. eigenvalues --    2.39084   2.42001   2.42535   2.43584   2.45417
 Alpha virt. eigenvalues --    2.50602   2.58372   2.60597   2.62423   2.63383
 Alpha virt. eigenvalues --    2.65066   2.67625   2.68490   2.68674   2.73121
 Alpha virt. eigenvalues --    2.78921   2.80480   2.81337   2.83796   2.87719
 Alpha virt. eigenvalues --    2.90270   2.91421   2.91579   2.92710   2.94167
 Alpha virt. eigenvalues --    2.99953   3.14155   3.46422   3.48510   3.51067
 Alpha virt. eigenvalues --    3.54990   3.59328   3.79538   4.13439   4.14882
 Alpha virt. eigenvalues --    4.18656  30.93526
          Condensed to atoms (all electrons):
               1          2          3          4          5          6
     1  Zr  10.461452   0.142018  -0.032114   0.007887  -0.083750  -0.039795
     2  Si   0.142018  12.959589  -0.708437  -0.076180  -0.158448   0.016478
     3  O   -0.032114  -0.708437   8.943231   0.103977   0.295064   0.094270
     4  O    0.007887  -0.076180   0.103977   8.567947  -0.030945   0.033078
     5  O   -0.083750  -0.158448   0.295064  -0.030945   8.550173   0.017664
     6  O   -0.039795   0.016478   0.094270   0.033078   0.017664   8.525720
     7  H   -0.004297   0.030466  -0.001609  -0.006381   0.240429   0.006670
     8  H    0.001551   0.059175  -0.021183   0.006354  -0.005090   0.233426
     9  H   -0.005186   0.035599   0.010856   0.225579  -0.005521  -0.005270
    10  O    0.026542  -0.011212  -0.025387   0.000625   0.001031   0.000893
    11  H   -0.087511   0.000607  -0.001068   0.000001   0.000002   0.000004
    12  O    0.031491  -0.012075  -0.025885   0.000027   0.001673   0.000177
    13  H   -0.086390   0.000724  -0.000767  -0.000002   0.000002   0.000001
    14  O    0.021947  -0.014568  -0.024656   0.003485   0.001027  -0.001342
    15  H   -0.090014   0.000914  -0.000343   0.000127   0.000003   0.000024
               7          8          9         10         11         12
     1  Zr  -0.004297   0.001551  -0.005186   0.026542  -0.087511   0.031491
     2  Si   0.030466   0.059175   0.035599  -0.011212   0.000607  -0.012075
     3  O   -0.001609  -0.021183   0.010856  -0.025387  -0.001068  -0.025885
     4  O   -0.006381   0.006354   0.225579   0.000625   0.000001   0.000027
     5  O    0.240429  -0.005090  -0.005521   0.001031   0.000002   0.001673
     6  O    0.006670   0.233426  -0.005270   0.000893   0.000004   0.000177
     7  H    0.370690   0.000055   0.000092   0.000011   0.000000  -0.000042
     8  H    0.000055   0.358495   0.000063  -0.000021   0.000000  -0.000006
     9  H    0.000092   0.000063   0.366942  -0.000002  -0.000000  -0.000013
    10  O    0.000011  -0.000021  -0.000002   8.613397   0.327995  -0.031821
    11  H    0.000000   0.000000  -0.000000   0.327995   0.382142  -0.000844
    12  O   -0.000042  -0.000006  -0.000013  -0.031821  -0.000844   8.608570
    13  H   -0.000000  -0.000000  -0.000000  -0.000746  -0.000008   0.325929
    14  O   -0.000004   0.000018  -0.000081  -0.036204  -0.001368  -0.037781
    15  H    0.000000  -0.000000  -0.000000  -0.000693  -0.000008  -0.000963
              13         14         15
     1  Zr  -0.086390   0.021947  -0.090014
     2  Si   0.000724  -0.014568   0.000914
     3  O   -0.000767  -0.024656  -0.000343
     4  O   -0.000002   0.003485   0.000127
     5  O    0.000002   0.001027   0.000003
     6  O    0.000001  -0.001342   0.000024
     7  H   -0.000000  -0.000004   0.000000
     8  H   -0.000000   0.000018  -0.000000
     9  H   -0.000000  -0.000081  -0.000000
    10  O   -0.000746  -0.036204  -0.000693
    11  H   -0.000008  -0.001368  -0.000008
    12  O    0.325929  -0.037781  -0.000963
    13  H    0.382295  -0.001526  -0.000011
    14  O   -0.001526   8.610397   0.331676
    15  H   -0.000011   0.331676   0.378687
 Mulliken charges:
               1
     1  Zr   1.736170
     2  Si   1.735351
     3  O   -0.605951
     4  O   -0.835577
     5  O   -0.823313
     6  O   -0.882000
     7  H    0.363920
     8  H    0.367165
     9  H    0.376942
    10  O   -0.864407
    11  H    0.380056
    12  O   -0.858437
    13  H    0.380500
    14  O   -0.851019
    15  H    0.380600
 Sum of Mulliken charges =  -0.00000
 Mulliken charges with hydrogens summed into heavy atoms:
               1
     1  Zr   1.736170
     2  Si   1.735351
     3  O   -0.605951
     4  O   -0.458636
     5  O   -0.459393
     6  O   -0.514835
    10  O   -0.484351
    12  O   -0.477937
    14  O   -0.470419
 Electronic spatial extent (au):  <R**2>=           2225.5239
 Charge=             -0.0000 electrons
 Dipole moment (field-independent basis, Debye):
    X=              1.7044    Y=             -0.4320    Z=              0.2653  Tot=              1.7782
 Quadrupole moment (field-independent basis, Debye-Ang):
   XX=            -68.9986   YY=            -68.1046   ZZ=            -67.9203
   XY=             -0.5254   XZ=             -0.0270   YZ=              0.5547
 Traceless Quadrupole moment (field-independent basis, Debye-Ang):
   XX=             -0.6574   YY=              0.2365   ZZ=              0.4209
   XY=             -0.5254   XZ=             -0.0270   YZ=              0.5547
 Octapole moment (field-independent basis, Debye-Ang**2):
  XXX=             52.6966  YYY=             17.8546  ZZZ=              9.8993  XYY=             17.2527
  XXY=              6.8588  XXZ=             -2.2360  XZZ=             27.9213  YZZ=            -19.9818
  YYZ=             -7.1713  XYZ=             -3.2328
 Hexadecapole moment (field-independent basis, Debye-Ang**3):
 XXXX=          -1885.4917 YYYY=           -342.4883 ZZZZ=           -347.6304 XXXY=            -99.9203
 XXXZ=             18.0601 YYYX=             12.7141 YYYZ=            -19.2956 ZZZX=             32.6925
 ZZZY=              8.2727 XXYY=           -338.0737 XXZZ=           -306.7757 YYZZ=           -117.4196
 XXYZ=             53.7842 YYXZ=            -37.4463 ZZXY=             10.7553
 N-N= 6.336914245200D+02 E-N=-3.304940407653D+03  KE= 8.306887611658D+02
 PrsmSu:  requested number of processors reduced to:   2 ShMem   1 Linda.
 PrsmSu:  requested number of processors reduced to:  10 ShMem   1 Linda.
   1 Symmetry operations used in ECPInt.
 ECPInt:  NShTT=    3321 NPrTT=   20810 LenC2=    3177 LenP2D=   15033.
 LDataN:  DoStor=T MaxTD1= 9 Len=  602
 Calling FoFJK, ICntrl=      2127 FMM=F ISym2X=0 I1Cent= 0 IOpClX= 0 NMat=1 NMatS=1 NMatT=0.
 CoulSu:  requested number of processors reduced to:  10 ShMem   1 Linda.
 Defaulting to unpruned grid for atomic number  40.
 Defaulting to unpruned grid for atomic number  40.
 Defaulting to unpruned grid for atomic number  40.
 Defaulting to unpruned grid for atomic number  40.
 Defaulting to unpruned grid for atomic number  40.
 Defaulting to unpruned grid for atomic number  40.
 Defaulting to unpruned grid for atomic number  40.
 Defaulting to unpruned grid for atomic number  40.
 Defaulting to unpruned grid for atomic number  40.
 Defaulting to unpruned grid for atomic number  40.
 Defaulting to unpruned grid for atomic number  40.
 Defaulting to unpruned grid for atomic number  40.
 Defaulting to unpruned grid for atomic number  40.
 Defaulting to unpruned grid for atomic number  40.
 Defaulting to unpruned grid for atomic number  40.
 Defaulting to unpruned grid for atomic number  40.
 ***** Axes restored to original set *****
 -------------------------------------------------------------------
 Center     Atomic                   Forces (Hartrees/Bohr)
 Number     Number              X              Y              Z
 -------------------------------------------------------------------
      1       40           0.001349854    0.000146321    0.000087673
      2       14          -0.000552796   -0.000853936   -0.000002621
      3        8          -0.000740590    0.000442359   -0.000096676
      4        8          -0.000006939    0.000263687    0.000050168
      5        8           0.000061161    0.000172351   -0.000041925
      6        8          -0.000011581    0.000110690   -0.000007513
      7        1           0.000039829   -0.000040893   -0.000030030
      8        1           0.000009497   -0.000005884   -0.000000108
      9        1          -0.000000442    0.000046905    0.000038102
     10        8          -0.000035273   -0.000070967   -0.000063971
     11        1          -0.000007431    0.000003732    0.000015516
     12        8           0.000014116    0.000026120    0.000051074
     13        1          -0.000012504   -0.000007869   -0.000016249
     14        8          -0.000092247   -0.000234641   -0.000027338
     15        1          -0.000014655    0.000002024    0.000043896
 -------------------------------------------------------------------
 Cartesian Forces:  Max     0.001349854 RMS     0.000292434

 GradGradGradGradGradGradGradGradGradGradGradGradGradGradGradGradGradGrad
 Berny optimization.
 FormGI is forming the generalized inverse of G from B-inverse, IUseBI=4.
 Internal  Forces:  Max     0.001182616 RMS     0.000231922
 Search for a local minimum.
 Step number   1 out of a maximum of   62
 All quantities printed in internal units (Hartrees-Bohrs-Radians)
 Mixed Optimization -- En-DIIS/RFO-DIIS
 Second derivative matrix not updated -- first step.
 ITU=  0
     Eigenvalues ---    0.00230   0.01596   0.01596   0.01597   0.01597
     Eigenvalues ---    0.01598   0.01598   0.03522   0.03617   0.03636
     Eigenvalues ---    0.03969   0.11780   0.12039   0.12694   0.15564
     Eigenvalues ---    0.15873   0.16000   0.16000   0.16000   0.19504
     Eigenvalues ---    0.20181   0.21252   0.21482   0.21527   0.21945
     Eigenvalues ---    0.25000   0.25000   0.25000   0.40909   0.41958
     Eigenvalues ---    0.42174   0.46093   0.54666   0.54704   0.54724
     Eigenvalues ---    0.56111   0.56113   0.561381000.000001000.00000
     Eigenvalues --- 1000.000001000.000001000.000001000.000001000.00000
     Eigenvalues --- 1000.000001000.000001000.000001000.000001000.00000
     Eigenvalues --- 1000.000001000.00000
 RFO step:  Lambda=-1.69460270D-05 EMin= 2.30000000D-03
 Linear search not attempted -- first point.
 Iteration  1 RMS(Cart)=  0.03070007 RMS(Int)=  0.00017187
 Iteration  2 RMS(Cart)=  0.00027812 RMS(Int)=  0.00000010
 Iteration  3 RMS(Cart)=  0.00000001 RMS(Int)=  0.00000010
 Iteration  1 RMS(Cart)=  0.00000006 RMS(Int)=  0.00000002
 Variable       Old X    -DE/DX   Delta X   Delta X   Delta X     New X
                                 (Linear)    (Quad)   (Total)
    R1        3.72697   0.00118   0.00000   0.00626   0.00626   3.73323
    R2        3.65948   0.00006   0.00000   0.00027   0.00027   3.65975
    R3        3.66086   0.00003   0.00000   0.00014   0.00014   3.66100
    R4        3.64668  -0.00024   0.00000  -0.00111  -0.00111   3.64557
    R5        3.07642   0.00035   0.00000   0.00066   0.00066   3.07708
    R6        3.12402   0.00032   0.00000   0.00075   0.00075   3.12477
    R7        3.14037  -0.00018   0.00000  -0.00044  -0.00044   3.13993
    R8        3.12677   0.00002   0.00000   0.00004   0.00004   3.12681
    R9        1.82096   0.00002   0.00000   0.00003   0.00003   1.82100
   R10        1.82078   0.00001   0.00000   0.00002   0.00002   1.82080
   R11        1.82130   0.00000   0.00000   0.00000   0.00000   1.82130
   R12        1.80835  -0.00002   0.00000  -0.00003  -0.00003   1.80832
   R13        1.80858  -0.00002   0.00000  -0.00004  -0.00004   1.80854
   R14        1.80856  -0.00001   0.00000  -0.00002  -0.00002   1.80854
    A1        1.88835  -0.00017   0.00000  -0.00074  -0.00074   1.88761
    A2        1.88384   0.00006   0.00000   0.00030   0.00030   1.88414
    A3        1.91625  -0.00016   0.00000  -0.00066  -0.00066   1.91559
    A4        1.92387   0.00009   0.00000   0.00044   0.00044   1.92431
    A5        1.92200   0.00009   0.00000   0.00020   0.00020   1.92220
    A6        1.92870   0.00009   0.00000   0.00043   0.00043   1.92912
    A7        0.22016  -0.00044   0.00000   0.00000  -0.00000   0.22016
    A8        1.85659  -0.00008   0.00000  -0.00061  -0.00061   1.85598
    A9        1.91680  -0.00001   0.00000   0.00008   0.00008   1.91688
   A10        2.00442   0.00007   0.00000   0.00039   0.00039   2.00480
   A11        1.98571   0.00005   0.00000   0.00023   0.00023   1.98594
   A12        1.86878  -0.00008   0.00000  -0.00052  -0.00052   1.86826
   A13        1.83492   0.00005   0.00000   0.00045   0.00045   1.83537
   A14        2.74017   0.00084   0.00000   0.00027   0.00027   2.74044
   A15        2.02425   0.00010   0.00000   0.00063   0.00063   2.02488
   A16        2.02688  -0.00002   0.00000  -0.00015  -0.00015   2.02673
   A17        2.01602  -0.00001   0.00000  -0.00006  -0.00006   2.01596
   A18        3.26477   0.00001   0.00000   0.00038   0.00038   3.26515
   A19        3.32447  -0.00001   0.00000  -0.00060  -0.00060   3.32386
   A20        3.06157  -0.00005   0.00000  -0.00291  -0.00291   3.05866
   A21        3.01055   0.00001   0.00000   0.00066   0.00066   3.01122
   A22        3.21480  -0.00001   0.00000  -0.00062  -0.00062   3.21418
   A23        3.12783  -0.00006   0.00000  -0.00401  -0.00401   3.12382
    D1       -2.38082  -0.00003   0.00000  -0.03139  -0.03139  -2.41222
    D2        1.82066  -0.00007   0.00000  -0.03167  -0.03167   1.78899
    D3       -0.28278  -0.00012   0.00000  -0.03198  -0.03198  -0.31476
    D4       -0.52207  -0.00001   0.00000  -0.00112  -0.00112  -0.52320
    D5       -2.67829  -0.00003   0.00000  -0.00107  -0.00107  -2.67936
    D6        1.54171  -0.00013   0.00000  -0.00196  -0.00196   1.53975
    D7        2.89578   0.00002   0.00000   0.00018   0.00018   2.89597
    D8       -1.27480  -0.00002   0.00000   0.00001   0.00001  -1.27480
    D9        0.74459   0.00002   0.00000   0.00035   0.00035   0.74494
   D10        0.61662  -0.00009   0.00000  -0.00141  -0.00141   0.61521
   D11       -1.46198  -0.00002   0.00000  -0.00085  -0.00085  -1.46283
   D12        2.78201   0.00002   0.00000  -0.00062  -0.00062   2.78139
   D13        1.54676   0.00005   0.00000   0.00036   0.00036   1.54712
   D14       -2.67951  -0.00006   0.00000  -0.00053  -0.00053  -2.68004
   D15       -0.56199  -0.00001   0.00000  -0.00029  -0.00029  -0.56227
         Item               Value     Threshold  Converged?
 Maximum Force            0.001222     0.000450     NO 
 RMS     Force            0.000196     0.000300     YES
 Maximum Displacement     0.080142     0.001800     NO 
 RMS     Displacement     0.030713     0.001200     NO 
 Predicted change in Energy=-8.499203D-06
 GradGradGradGradGradGradGradGradGradGradGradGradGradGradGradGradGradGrad

                          Input orientation:                          
 ---------------------------------------------------------------------
 Center     Atomic      Atomic             Coordinates (Angstroms)
 Number     Number       Type             X           Y           Z
 ---------------------------------------------------------------------
      1         40           0        1.380642   -0.013340   -0.013975
      2         14           0       -2.148301    0.138844    0.007772
      3          8           0       -0.576032   -0.284709    0.009497
      4          8           0       -2.234128    1.611730    0.754425
      5          8           0       -3.051042   -1.042318    0.749900
      6          8           0       -2.819342    0.316687   -1.494193
      7          1           0       -2.633517   -1.491151    1.493273
      8          1           0       -3.195809   -0.483264   -1.877920
      9          1           0       -3.062513    2.092254    0.647389
     10          8           0        2.157874   -1.328156   -1.204688
     11          1           0        2.665359   -1.875151   -1.803813
     12          8           0        2.040592   -0.268570    1.789500
     13          1           0        2.502506   -0.280846    2.627599
     14          8           0        1.784561    1.767355   -0.636552
     15          1           0        1.915750    2.674805   -0.910864
 ---------------------------------------------------------------------
                    Distance matrix (angstroms):
                    1          2          3          4          5
     1  Zr   0.000000
     2  Si   3.532290   0.000000
     3  O    1.975541   1.628322   0.000000
     4  O    4.037059   1.653557   2.626915   0.000000
     5  O    4.613255   1.661577   2.692182   2.776930   0.000000
     6  O    4.465404   1.654637   2.766804   2.660056   2.633730
     7  H    4.535327   2.258104   2.808975   3.214543   0.963526
     8  H    4.963771   2.245022   3.234965   3.499010   2.690527
     9  H    4.961104   2.249601   3.498493   0.963630   3.136269
    10  O    1.936654   4.708003   3.168164   5.636553   5.570900
    11  H    2.884503   5.523526   4.040323   6.535128   6.316036
    12  O    1.937317   4.570270   3.164710   4.783319   5.253969
    13  H    2.882369   5.354404   4.041271   5.433813   5.911640
    14  O    1.929153   4.305184   3.193861   4.255455   5.761907
    15  H    2.883900   4.877654   3.976778   4.596172   6.422162
                    6          7          8          9         10
     6  O    0.000000
     7  H    3.496822   0.000000
     8  H    0.963792   3.563278   0.000000
     9  H    2.792516   3.706798   3.609467   0.000000
    10  O    5.249952   5.501180   5.461594   6.510133   0.000000
    11  H    5.914556   6.252705   6.024628   7.386286   0.956920
    12  O    5.894415   4.840429   6.396558   5.737560   3.178307
    13  H    6.757831   5.397246   7.267150   6.365711   3.987738
    14  O    4.902644   5.888415   5.604496   5.024759   3.169279
    15  H    5.321851   6.620491   6.085774   5.248869   4.021026
                   11         12         13         14         15
    11  H    0.000000
    12  O    3.985390   0.000000
    13  H    4.712296   0.957040   0.000000
    14  O    3.925067   3.177463   3.919854   0.000000
    15  H    4.696954   3.996375   4.647674   0.957039   0.000000
 Stoichiometry    H6O7SiZr
 Framework group  C1[X(H6O7SiZr)]
 Deg. of freedom    39
 Full point group                 C1      NOp   1
 Largest Abelian subgroup         C1      NOp   1
 Largest concise Abelian subgroup C1      NOp   1
                         Standard orientation:                         
 ---------------------------------------------------------------------
 Center     Atomic      Atomic             Coordinates (Angstroms)
 Number     Number       Type             X           Y           Z
 ---------------------------------------------------------------------
      1         40           0        1.367913   -0.018874   -0.010983
      2         14           0       -2.164254   -0.035440    0.013308
      3          8           0       -0.573603   -0.383576    0.005403
      4          8           0       -2.319479    1.413452    0.794887
      5          8           0       -3.009127   -1.275615    0.726748
      6          8           0       -2.844247    0.146042   -1.484188
      7          1           0       -2.570091   -1.721672    1.459321
      8          1           0       -3.182525   -0.661541   -1.887020
      9          1           0       -3.169890    1.856408    0.699101
     10          8           0        2.205866   -1.266405   -1.232510
     11          1           0        2.738318   -1.774166   -1.844368
     12          8           0        2.040763   -0.285357    1.786086
     13          1           0        2.503433   -0.295622    2.623795
     14          8           0        1.686089    1.793382   -0.590745
     15          1           0        1.773702    2.712336   -0.843272
 ---------------------------------------------------------------------
 Rotational constants (GHZ):           1.6369227           0.4814273           0.4792712
 Basis read from rwf:  (5D, 7F)
 Pseudo-potential data read from rwf file.
 There are   300 symmetry adapted cartesian basis functions of A   symmetry.
 There are   266 symmetry adapted basis functions of A   symmetry.
   266 basis functions,   576 primitive gaussians,   300 cartesian basis functions
    44 alpha electrons       44 beta electrons
       nuclear repulsion energy       633.4971633455 Hartrees.
 NAtoms=   15 NActive=   15 NUniq=   15 SFac= 1.00D+00 NAtFMM=   60 NAOKFM=F Big=F
 Integral buffers will be    131072 words long.
 Raffenetti 2 integral format.
 Two-electron integral symmetry is turned on.
 Nuclear repulsion after empirical dispersion term =      633.4869003597 Hartrees.
 One-electron integrals computed using PRISM.
 PrsmSu:  requested number of processors reduced to:   4 ShMem   1 Linda.
   1 Symmetry operations used in ECPInt.
 ECPInt:  NShTT=    3321 NPrTT=   20810 LenC2=    3177 LenP2D=   15031.
 LDataN:  DoStor=T MaxTD1= 8 Len=  415
 NBasis=   266 RedAO= T EigKep=  1.04D-04  NBF=   266
 NBsUse=   266 1.00D-06 EigRej= -1.00D+00 NBFU=   266
 Defaulting to unpruned grid for atomic number  40.
 Initial guess from the checkpoint file:  "/localscratch/sarashs.35132322.0/Gau-27721.chk"
 B after Tr=    -0.000000   -0.000000    0.000000
         Rot=    0.999885    0.015177    0.000489   -0.000015 Ang=   1.74 deg.
 ExpMin= 1.01D-02 ExpMax= 1.61D+04 ExpMxC= 2.43D+03 IAcc=3 IRadAn=         5 AccDes= 0.00D+00
 Harris functional with IExCor=  402 and IRadAn=       5 diagonalized for initial guess.
 HarFok:  IExCor=  402 AccDes= 0.00D+00 IRadAn=         5 IDoV= 1 UseB2=F ITyADJ=14
 ICtDFT=  3500011 ScaDFX=  1.000000  1.000000  1.000000  1.000000
 Defaulting to unpruned grid for atomic number  40.
 FoFCou: FMM=F IPFlag=           0 FMFlag=      100000 FMFlg1=           0
         NFxFlg=           0 DoJE=T BraDBF=F KetDBF=T FulRan=T
         wScrn=  0.000000 ICntrl=       500 IOpCl=  0 I1Cent=   200000004 NGrid=           0
         NMat0=    1 NMatS0=      1 NMatT0=    0 NMatD0=    1 NMtDS0=    0 NMtDT0=    0
 Petite list used in FoFCou.
 Requested convergence on RMS density matrix=1.00D-08 within 128 cycles.
 Requested convergence on MAX density matrix=1.00D-06.
 Requested convergence on             energy=1.00D-06.
 No special actions if energy rises.
 Defaulting to unpruned grid for atomic number  40.
 Defaulting to unpruned grid for atomic number  40.
 Defaulting to unpruned grid for atomic number  40.
 Defaulting to unpruned grid for atomic number  40.
 Defaulting to unpruned grid for atomic number  40.
 Defaulting to unpruned grid for atomic number  40.
 Defaulting to unpruned grid for atomic number  40.
 Defaulting to unpruned grid for atomic number  40.
 Defaulting to unpruned grid for atomic number  40.
 Defaulting to unpruned grid for atomic number  40.
 Defaulting to unpruned grid for atomic number  40.
 Defaulting to unpruned grid for atomic number  40.
 Defaulting to unpruned grid for atomic number  40.
 Defaulting to unpruned grid for atomic number  40.
 Defaulting to unpruned grid for atomic number  40.
 Defaulting to unpruned grid for atomic number  40.
 SCF Done:  E(RB3LYP) =  -867.127807909     A.U. after    9 cycles
            NFock=  9  Conv=0.78D-08     -V/T= 2.0439
 PrsmSu:  requested number of processors reduced to:   2 ShMem   1 Linda.
 PrsmSu:  requested number of processors reduced to:  10 ShMem   1 Linda.
   1 Symmetry operations used in ECPInt.
 ECPInt:  NShTT=    3321 NPrTT=   20810 LenC2=    3177 LenP2D=   15031.
 LDataN:  DoStor=T MaxTD1= 9 Len=  602
 Calling FoFJK, ICntrl=      2127 FMM=F ISym2X=0 I1Cent= 0 IOpClX= 0 NMat=1 NMatS=1 NMatT=0.
 CoulSu:  requested number of processors reduced to:  10 ShMem   1 Linda.
 Defaulting to unpruned grid for atomic number  40.
 Defaulting to unpruned grid for atomic number  40.
 Defaulting to unpruned grid for atomic number  40.
 Defaulting to unpruned grid for atomic number  40.
 Defaulting to unpruned grid for atomic number  40.
 Defaulting to unpruned grid for atomic number  40.
 Defaulting to unpruned grid for atomic number  40.
 Defaulting to unpruned grid for atomic number  40.
 Defaulting to unpruned grid for atomic number  40.
 Defaulting to unpruned grid for atomic number  40.
 Defaulting to unpruned grid for atomic number  40.
 Defaulting to unpruned grid for atomic number  40.
 Defaulting to unpruned grid for atomic number  40.
 Defaulting to unpruned grid for atomic number  40.
 Defaulting to unpruned grid for atomic number  40.
 Defaulting to unpruned grid for atomic number  40.
 ***** Axes restored to original set *****
 -------------------------------------------------------------------
 Center     Atomic                   Forces (Hartrees/Bohr)
 Number     Number              X              Y              Z
 -------------------------------------------------------------------
      1       40          -0.000109179   -0.000336601    0.000277217
      2       14          -0.000007676   -0.000559374    0.000046521
      3        8           0.000258510    0.000597090   -0.000130718
      4        8          -0.000031860    0.000140138    0.000013195
      5        8          -0.000027209    0.000080502    0.000010476
      6        8          -0.000039775    0.000055910   -0.000017270
      7        1           0.000034046   -0.000028863   -0.000046553
      8        1           0.000005784   -0.000004841   -0.000005125
      9        1           0.000013192    0.000001720    0.000021998
     10        8          -0.000066625    0.000036240    0.000037978
     11        1           0.000010854    0.000002481    0.000002201
     12        8          -0.000001170    0.000041123   -0.000184719
     13        1          -0.000010316   -0.000002718    0.000015403
     14        8          -0.000039982   -0.000051581   -0.000058941
     15        1           0.000011407    0.000028774    0.000018338
 -------------------------------------------------------------------
 Cartesian Forces:  Max     0.000597090 RMS     0.000152622

 GradGradGradGradGradGradGradGradGradGradGradGradGradGradGradGradGradGrad
 Berny optimization.
 Using GEDIIS/GDIIS optimizer.
 FormGI is forming the generalized inverse of G from B-inverse, IUseBI=4.
 Internal  Forces:  Max     0.000686987 RMS     0.000124751
 Search for a local minimum.
 Step number   2 out of a maximum of   62
 All quantities printed in internal units (Hartrees-Bohrs-Radians)
 Mixed Optimization -- En-DIIS/RFO-DIIS
 Swapping is turned off.
 Update second derivatives using D2CorX and points    1    2
 DE= -1.01D-05 DEPred=-8.50D-06 R= 1.18D+00
 TightC=F SS=  1.41D+00  RLast= 5.56D-02 DXNew= 5.0454D-01 1.6682D-01
 Trust test= 1.18D+00 RLast= 5.56D-02 DXMaxT set to 3.00D-01
 ITU=  1  0
     Eigenvalues ---    0.00124   0.01563   0.01596   0.01596   0.01598
     Eigenvalues ---    0.01598   0.01609   0.03489   0.03616   0.03635
     Eigenvalues ---    0.03923   0.11717   0.12016   0.12701   0.15446
     Eigenvalues ---    0.15857   0.15977   0.16000   0.16003   0.20049
     Eigenvalues ---    0.21046   0.21254   0.21517   0.21871   0.24486
     Eigenvalues ---    0.24853   0.25000   0.28742   0.40823   0.41848
     Eigenvalues ---    0.41991   0.47133   0.54666   0.54711   0.54730
     Eigenvalues ---    0.56111   0.56130   0.561451000.000001000.00000
     Eigenvalues --- 1000.000001000.000001000.000001000.000001000.00000
     Eigenvalues --- 1000.000001000.000001000.000001000.000001000.00000
     Eigenvalues --- 1000.000001000.00000
 En-DIIS/RFO-DIIS/Sim-DIIS IScMMF=       -3 using points:     2    1
 RFO step:  Lambda=-8.95451426D-06.
 DidBck=F Rises=F RFO-DIIS coefs:    2.44016   -1.44016
 Iteration  1 RMS(Cart)=  0.04476661 RMS(Int)=  0.00036491
 Iteration  2 RMS(Cart)=  0.00059017 RMS(Int)=  0.00000029
 Iteration  3 RMS(Cart)=  0.00000006 RMS(Int)=  0.00000029
 Iteration  1 RMS(Cart)=  0.00000029 RMS(Int)=  0.00000011
 Variable       Old X    -DE/DX   Delta X   Delta X   Delta X     New X
                                 (Linear)    (Quad)   (Total)
    R1        3.73323  -0.00023   0.00902  -0.00782   0.00119   3.73443
    R2        3.65975  -0.00007   0.00039  -0.00075  -0.00037   3.65938
    R3        3.66100  -0.00017   0.00020  -0.00122  -0.00102   3.65998
    R4        3.64557  -0.00001  -0.00159   0.00104  -0.00055   3.64502
    R5        3.07708  -0.00004   0.00095  -0.00093   0.00002   3.07710
    R6        3.12477   0.00014   0.00108  -0.00030   0.00079   3.12556
    R7        3.13993  -0.00006  -0.00063   0.00026  -0.00038   3.13955
    R8        3.12681   0.00004   0.00006   0.00009   0.00015   3.12696
    R9        1.82100  -0.00001   0.00005  -0.00007  -0.00002   1.82098
   R10        1.82080  -0.00001   0.00003  -0.00004  -0.00001   1.82079
   R11        1.82130   0.00000   0.00000   0.00001   0.00001   1.82132
   R12        1.80832   0.00000  -0.00004   0.00004  -0.00001   1.80831
   R13        1.80854   0.00001  -0.00005   0.00006   0.00001   1.80855
   R14        1.80854   0.00002  -0.00003   0.00008   0.00005   1.80859
    A1        1.88761  -0.00008  -0.00106   0.00022  -0.00084   1.88677
    A2        1.88414   0.00015   0.00043   0.00066   0.00109   1.88523
    A3        1.91559  -0.00008  -0.00095   0.00019  -0.00076   1.91483
    A4        1.92431  -0.00000   0.00063  -0.00038   0.00025   1.92456
    A5        1.92220   0.00000   0.00029  -0.00041  -0.00012   1.92208
    A6        1.92912   0.00001   0.00061  -0.00024   0.00037   1.92949
    A7        0.22016  -0.00038  -0.00000   0.00000  -0.00000   0.22016
    A8        1.85598  -0.00003  -0.00087   0.00037  -0.00050   1.85548
    A9        1.91688   0.00000   0.00011   0.00005   0.00016   1.91704
   A10        2.00480   0.00006   0.00056   0.00005   0.00060   2.00541
   A11        1.98594   0.00003   0.00033  -0.00011   0.00022   1.98616
   A12        1.86826  -0.00005  -0.00075   0.00006  -0.00069   1.86756
   A13        1.83537  -0.00000   0.00065  -0.00042   0.00023   1.83560
   A14        2.74044   0.00069   0.00039  -0.00033   0.00006   2.74050
   A15        2.02488   0.00003   0.00091  -0.00037   0.00054   2.02542
   A16        2.02673  -0.00003  -0.00022  -0.00011  -0.00034   2.02639
   A17        2.01596   0.00000  -0.00009   0.00006  -0.00003   2.01594
   A18        3.26515   0.00002   0.00054   0.00142   0.00197   3.26711
   A19        3.32386  -0.00003  -0.00087  -0.00203  -0.00290   3.32097
   A20        3.05866  -0.00000  -0.00419   0.00295  -0.00124   3.05742
   A21        3.01122  -0.00000   0.00096  -0.00095   0.00000   3.01122
   A22        3.21418   0.00001  -0.00090   0.00114   0.00024   3.21443
   A23        3.12382  -0.00005  -0.00578   0.00003  -0.00574   3.11808
    D1       -2.41222  -0.00001  -0.04521  -0.00055  -0.04576  -2.45798
    D2        1.78899  -0.00005  -0.04561  -0.00059  -0.04620   1.74279
    D3       -0.31476  -0.00011  -0.04606  -0.00080  -0.04687  -0.36163
    D4       -0.52320  -0.00001  -0.00162   0.00008  -0.00154  -0.52473
    D5       -2.67936  -0.00003  -0.00154  -0.00005  -0.00159  -2.68095
    D6        1.53975  -0.00006  -0.00283   0.00043  -0.00240   1.53735
    D7        2.89597   0.00001   0.00026   0.00008   0.00034   2.89631
    D8       -1.27480   0.00001   0.00001   0.00032   0.00033  -1.27446
    D9        0.74494  -0.00001   0.00051  -0.00022   0.00029   0.74524
   D10        0.61521  -0.00006  -0.00203  -0.00015  -0.00218   0.61303
   D11       -1.46283  -0.00004  -0.00122  -0.00058  -0.00180  -1.46463
   D12        2.78139   0.00000  -0.00089  -0.00033  -0.00122   2.78017
   D13        1.54712   0.00002   0.00051  -0.00028   0.00024   1.54735
   D14       -2.68004  -0.00002  -0.00076   0.00025  -0.00051  -2.68056
   D15       -0.56227  -0.00001  -0.00041  -0.00007  -0.00048  -0.56276
         Item               Value     Threshold  Converged?
 Maximum Force            0.000199     0.000450     YES
 RMS     Force            0.000060     0.000300     YES
 Maximum Displacement     0.116006     0.001800     NO 
 RMS     Displacement     0.044801     0.001200     NO 
 Predicted change in Energy=-4.506761D-06
 GradGradGradGradGradGradGradGradGradGradGradGradGradGradGradGradGradGrad

                          Input orientation:                          
 ---------------------------------------------------------------------
 Center     Atomic      Atomic             Coordinates (Angstroms)
 Number     Number       Type             X           Y           Z
 ---------------------------------------------------------------------
      1         40           0        1.381118   -0.013138   -0.019147
      2         14           0       -2.148436    0.138535    0.011204
      3          8           0       -0.576184   -0.284959   -0.000641
      4          8           0       -2.232724    1.589625    0.800420
      5          8           0       -3.050743   -1.063256    0.719525
      6          8           0       -2.821326    0.361140   -1.484040
      7          1           0       -2.631764   -1.534514    1.448048
      8          1           0       -3.198490   -0.426973   -1.890898
      9          1           0       -3.060889    2.073679    0.708777
     10          8           0        2.163217   -1.349261   -1.182320
     11          1           0        2.675483   -1.908169   -1.766183
     12          8           0        2.033732   -0.234432    1.790890
     13          1           0        2.488257   -0.229316    2.633097
     14          8           0        1.786163    1.755553   -0.673498
     15          1           0        1.919186    2.659657   -0.957884
 ---------------------------------------------------------------------
                    Distance matrix (angstroms):
                    1          2          3          4          5
     1  Zr   0.000000
     2  Si   3.532942   0.000000
     3  O    1.976173   1.628332   0.000000
     4  O    4.037374   1.653974   2.626764   0.000000
     5  O    4.614084   1.661378   2.692179   2.777314   0.000000
     6  O    4.466154   1.654716   2.767413   2.659772   2.633863
     7  H    4.535468   2.257702   2.808113   3.215416   0.963521
     8  H    4.964627   2.245084   3.235696   3.498938   2.690909
     9  H    4.961462   2.250325   3.498601   0.963621   3.136970
    10  O    1.936460   4.714700   3.167558   5.647354   5.557355
    11  H    2.884209   5.533380   4.040456   6.550764   6.299388
    12  O    1.936777   4.560364   3.166038   4.744561   5.261811
    13  H    2.882167   5.339341   4.041098   5.380977   5.919267
    14  O    1.928861   4.308670   3.193291   4.283855   5.769043
    15  H    2.883501   4.882698   3.976675   4.634108   6.432260
                    6          7          8          9         10
     6  O    0.000000
     7  H    3.496652   0.000000
     8  H    0.963799   3.563198   0.000000
     9  H    2.792602   3.708062   3.609779   0.000000
    10  O    5.278463   5.472203   5.486402   6.525646   0.000000
    11  H    5.953509   6.215929   6.059130   7.408543   0.956917
    12  O    5.886548   4.855369   6.400686   5.696798   3.177984
    13  H    6.744710   5.415026   7.269435   6.308710   3.989653
    14  O    4.881630   5.902845   5.576042   5.050327   3.168744
    15  H    5.294570   6.640085   6.048836   5.284154   4.022604
                   11         12         13         14         15
    11  H    0.000000
    12  O    3.983216   0.000000
    13  H    4.712459   0.957044   0.000000
    14  O    3.925266   3.177191   3.919977   0.000000
    15  H    4.700039   3.993072   4.643829   0.957065   0.000000
 Stoichiometry    H6O7SiZr
 Framework group  C1[X(H6O7SiZr)]
 Deg. of freedom    39
 Full point group                 C1      NOp   1
 Largest Abelian subgroup         C1      NOp   1
 Largest concise Abelian subgroup C1      NOp   1
                         Standard orientation:                         
 ---------------------------------------------------------------------
 Center     Atomic      Atomic             Coordinates (Angstroms)
 Number     Number       Type             X           Y           Z
 ---------------------------------------------------------------------
      1         40           0        1.368296   -0.019029   -0.010750
      2         14           0       -2.164520   -0.035764    0.013898
      3          8           0       -0.573814   -0.383762    0.010202
      4          8           0       -2.319368    1.421848    0.780070
      5          8           0       -3.009578   -1.268040    0.740226
      6          8           0       -2.844750    0.130929   -1.485297
      7          1           0       -2.569796   -1.707241    1.476477
      8          1           0       -3.183145   -0.680598   -1.880038
      9          1           0       -3.169557    1.864270    0.680034
     10          8           0        2.215297   -1.334338   -1.151990
     11          1           0        2.754664   -1.877220   -1.726493
     12          8           0        2.027679   -0.180441    1.803159
     13          1           0        2.480017   -0.140388    2.645607
     14          8           0        1.689486    1.756511   -0.692514
     15          1           0        1.779646    2.661363   -0.990987
 ---------------------------------------------------------------------
 Rotational constants (GHZ):           1.6371488           0.4813540           0.4791777
 Basis read from rwf:  (5D, 7F)
 Pseudo-potential data read from rwf file.
 There are   300 symmetry adapted cartesian basis functions of A   symmetry.
 There are   266 symmetry adapted basis functions of A   symmetry.
   266 basis functions,   576 primitive gaussians,   300 cartesian basis functions
    44 alpha electrons       44 beta electrons
       nuclear repulsion energy       633.4774025979 Hartrees.
 NAtoms=   15 NActive=   15 NUniq=   15 SFac= 1.00D+00 NAtFMM=   60 NAOKFM=F Big=F
 Integral buffers will be    131072 words long.
 Raffenetti 2 integral format.
 Two-electron integral symmetry is turned on.
 Nuclear repulsion after empirical dispersion term =      633.4671419831 Hartrees.
 One-electron integrals computed using PRISM.
 PrsmSu:  requested number of processors reduced to:   4 ShMem   1 Linda.
   1 Symmetry operations used in ECPInt.
 ECPInt:  NShTT=    3321 NPrTT=   20810 LenC2=    3179 LenP2D=   15029.
 LDataN:  DoStor=T MaxTD1= 8 Len=  415
 NBasis=   266 RedAO= T EigKep=  1.04D-04  NBF=   266
 NBsUse=   266 1.00D-06 EigRej= -1.00D+00 NBFU=   266
 Defaulting to unpruned grid for atomic number  40.
 Initial guess from the checkpoint file:  "/localscratch/sarashs.35132322.0/Gau-27721.chk"
 B after Tr=     0.000000    0.000000    0.000000
         Rot=    0.999812    0.019374    0.000707   -0.000051 Ang=   2.22 deg.
 ExpMin= 1.01D-02 ExpMax= 1.61D+04 ExpMxC= 2.43D+03 IAcc=3 IRadAn=         5 AccDes= 0.00D+00
 Harris functional with IExCor=  402 and IRadAn=       5 diagonalized for initial guess.
 HarFok:  IExCor=  402 AccDes= 0.00D+00 IRadAn=         5 IDoV= 1 UseB2=F ITyADJ=14
 ICtDFT=  3500011 ScaDFX=  1.000000  1.000000  1.000000  1.000000
 Defaulting to unpruned grid for atomic number  40.
 FoFCou: FMM=F IPFlag=           0 FMFlag=      100000 FMFlg1=           0
         NFxFlg=           0 DoJE=T BraDBF=F KetDBF=T FulRan=T
         wScrn=  0.000000 ICntrl=       500 IOpCl=  0 I1Cent=   200000004 NGrid=           0
         NMat0=    1 NMatS0=      1 NMatT0=    0 NMatD0=    1 NMtDS0=    0 NMtDT0=    0
 Petite list used in FoFCou.
 Requested convergence on RMS density matrix=1.00D-08 within 128 cycles.
 Requested convergence on MAX density matrix=1.00D-06.
 Requested convergence on             energy=1.00D-06.
 No special actions if energy rises.
 Defaulting to unpruned grid for atomic number  40.
 Defaulting to unpruned grid for atomic number  40.
 Defaulting to unpruned grid for atomic number  40.
 Defaulting to unpruned grid for atomic number  40.
 Defaulting to unpruned grid for atomic number  40.
 Defaulting to unpruned grid for atomic number  40.
 Defaulting to unpruned grid for atomic number  40.
 Defaulting to unpruned grid for atomic number  40.
 Defaulting to unpruned grid for atomic number  40.
 Defaulting to unpruned grid for atomic number  40.
 Defaulting to unpruned grid for atomic number  40.
 Defaulting to unpruned grid for atomic number  40.
 Defaulting to unpruned grid for atomic number  40.
 Defaulting to unpruned grid for atomic number  40.
 Defaulting to unpruned grid for atomic number  40.
 Defaulting to unpruned grid for atomic number  40.
 SCF Done:  E(RB3LYP) =  -867.127814520     A.U. after   10 cycles
            NFock= 10  Conv=0.22D-08     -V/T= 2.0439
 PrsmSu:  requested number of processors reduced to:   2 ShMem   1 Linda.
 PrsmSu:  requested number of processors reduced to:  10 ShMem   1 Linda.
   1 Symmetry operations used in ECPInt.
 ECPInt:  NShTT=    3321 NPrTT=   20810 LenC2=    3179 LenP2D=   15029.
 LDataN:  DoStor=T MaxTD1= 9 Len=  602
 Calling FoFJK, ICntrl=      2127 FMM=F ISym2X=0 I1Cent= 0 IOpClX= 0 NMat=1 NMatS=1 NMatT=0.
 CoulSu:  requested number of processors reduced to:  10 ShMem   1 Linda.
 Defaulting to unpruned grid for atomic number  40.
 Defaulting to unpruned grid for atomic number  40.
 Defaulting to unpruned grid for atomic number  40.
 Defaulting to unpruned grid for atomic number  40.
 Defaulting to unpruned grid for atomic number  40.
 Defaulting to unpruned grid for atomic number  40.
 Defaulting to unpruned grid for atomic number  40.
 Defaulting to unpruned grid for atomic number  40.
 Defaulting to unpruned grid for atomic number  40.
 Defaulting to unpruned grid for atomic number  40.
 Defaulting to unpruned grid for atomic number  40.
 Defaulting to unpruned grid for atomic number  40.
 Defaulting to unpruned grid for atomic number  40.
 Defaulting to unpruned grid for atomic number  40.
 Defaulting to unpruned grid for atomic number  40.
 Defaulting to unpruned grid for atomic number  40.
 ***** Axes restored to original set *****
 -------------------------------------------------------------------
 Center     Atomic                   Forces (Hartrees/Bohr)
 Number     Number              X              Y              Z
 -------------------------------------------------------------------
      1       40          -0.000544739   -0.000390775    0.000271909
      2       14           0.000081918   -0.000166456    0.000075473
      3        8           0.000403308    0.000545723   -0.000139284
      4        8           0.000006388   -0.000041530   -0.000036905
      5        8          -0.000065695    0.000004705    0.000047627
      6        8          -0.000012095   -0.000008477   -0.000000905
      7        1           0.000019989   -0.000035745   -0.000036532
      8        1           0.000002228   -0.000001555   -0.000006055
      9        1           0.000005191   -0.000024441   -0.000001143
     10        8           0.000004832   -0.000071246   -0.000034525
     11        1           0.000017708    0.000003378   -0.000001051
     12        8           0.000092556    0.000009940   -0.000068496
     13        1          -0.000029770   -0.000000763    0.000023359
     14        8          -0.000004632    0.000177019   -0.000097482
     15        1           0.000022813    0.000000221    0.000004012
 -------------------------------------------------------------------
 Cartesian Forces:  Max     0.000545723 RMS     0.000157748

 GradGradGradGradGradGradGradGradGradGradGradGradGradGradGradGradGradGrad
 Berny optimization.
 Using GEDIIS/GDIIS optimizer.
 FormGI is forming the generalized inverse of G from B-inverse, IUseBI=4.
 Internal  Forces:  Max     0.000570093 RMS     0.000121914
 Search for a local minimum.
 Step number   3 out of a maximum of   62
 All quantities printed in internal units (Hartrees-Bohrs-Radians)
 Mixed Optimization -- En-DIIS/RFO-DIIS
 Swapping is turned off.
 Update second derivatives using D2CorX and points    1    2    3
 DE= -6.61D-06 DEPred=-4.51D-06 R= 1.47D+00
 TightC=F SS=  1.41D+00  RLast= 8.06D-02 DXNew= 5.0454D-01 2.4188D-01
 Trust test= 1.47D+00 RLast= 8.06D-02 DXMaxT set to 3.00D-01
 ITU=  1  1  0
     Eigenvalues ---    0.00039   0.01534   0.01596   0.01597   0.01598
     Eigenvalues ---    0.01599   0.01687   0.03453   0.03616   0.03635
     Eigenvalues ---    0.03915   0.11767   0.12037   0.12714   0.15398
     Eigenvalues ---    0.15875   0.16000   0.16002   0.16047   0.20095
     Eigenvalues ---    0.21246   0.21384   0.21645   0.23174   0.24429
     Eigenvalues ---    0.24821   0.25005   0.34293   0.41152   0.41966
     Eigenvalues ---    0.43745   0.50639   0.54666   0.54723   0.54749
     Eigenvalues ---    0.56116   0.56130   0.561571000.000001000.00000
     Eigenvalues --- 1000.000001000.000001000.000001000.000001000.00000
     Eigenvalues --- 1000.000001000.000001000.000001000.000001000.00000
     Eigenvalues --- 1000.000001000.00000
 En-DIIS/RFO-DIIS/Sim-DIIS IScMMF=       -3 using points:     3    2    1
 RFO step:  Lambda=-1.56752819D-05.
 DidBck=F Rises=F RFO-DIIS coefs:    1.83273    0.21537   -1.04810
 Iteration  1 RMS(Cart)=  0.06935172 RMS(Int)=  0.00087512
 Iteration  2 RMS(Cart)=  0.00141998 RMS(Int)=  0.00000082
 Iteration  3 RMS(Cart)=  0.00000038 RMS(Int)=  0.00000080
 Iteration  1 RMS(Cart)=  0.00000057 RMS(Int)=  0.00000021
 Variable       Old X    -DE/DX   Delta X   Delta X   Delta X     New X
                                 (Linear)    (Quad)   (Total)
    R1        3.73443  -0.00047   0.00756  -0.00545   0.00211   3.73654
    R2        3.65938   0.00008  -0.00002  -0.00001  -0.00003   3.65935
    R3        3.65998  -0.00002  -0.00070  -0.00037  -0.00107   3.65891
    R4        3.64502   0.00020  -0.00162   0.00123  -0.00038   3.64464
    R5        3.07710  -0.00012   0.00071  -0.00066   0.00005   3.07715
    R6        3.12556  -0.00008   0.00145  -0.00046   0.00098   3.12654
    R7        3.13955   0.00005  -0.00078   0.00030  -0.00047   3.13908
    R8        3.12696   0.00001   0.00017   0.00002   0.00019   3.12715
    R9        1.82098  -0.00002   0.00002  -0.00005  -0.00003   1.82095
   R10        1.82079  -0.00000   0.00001  -0.00002  -0.00000   1.82079
   R11        1.82132   0.00000   0.00001   0.00000   0.00002   1.82133
   R12        1.80831   0.00001  -0.00003   0.00003  -0.00001   1.80830
   R13        1.80855   0.00001  -0.00003   0.00003   0.00000   1.80855
   R14        1.80859   0.00000   0.00002   0.00003   0.00005   1.80864
    A1        1.88677  -0.00004  -0.00147   0.00018  -0.00130   1.88547
    A2        1.88523   0.00017   0.00122   0.00051   0.00173   1.88695
    A3        1.91483  -0.00005  -0.00132   0.00014  -0.00118   1.91365
    A4        1.92456  -0.00006   0.00067  -0.00039   0.00028   1.92485
    A5        1.92208  -0.00001   0.00011  -0.00024  -0.00014   1.92194
    A6        1.92949  -0.00001   0.00076  -0.00017   0.00059   1.93008
    A7        0.22016  -0.00032  -0.00000   0.00000  -0.00000   0.22016
    A8        1.85548  -0.00001  -0.00105   0.00027  -0.00078   1.85470
    A9        1.91704   0.00001   0.00022   0.00001   0.00023   1.91727
   A10        2.00541   0.00001   0.00091  -0.00009   0.00082   2.00622
   A11        1.98616   0.00001   0.00043  -0.00006   0.00037   1.98653
   A12        1.86756   0.00000  -0.00113   0.00022  -0.00091   1.86665
   A13        1.83560  -0.00003   0.00066  -0.00035   0.00031   1.83591
   A14        2.74050   0.00057   0.00033  -0.00023   0.00010   2.74060
   A15        2.02542  -0.00003   0.00111  -0.00044   0.00068   2.02610
   A16        2.02639   0.00000  -0.00044   0.00004  -0.00040   2.02599
   A17        2.01594   0.00001  -0.00009   0.00007  -0.00002   2.01592
   A18        3.26711   0.00003   0.00203   0.00127   0.00331   3.27042
   A19        3.32097  -0.00007  -0.00304  -0.00299  -0.00603   3.31493
   A20        3.05742   0.00004  -0.00408   0.00326  -0.00082   3.05659
   A21        3.01122  -0.00001   0.00070  -0.00087  -0.00017   3.01105
   A22        3.21443   0.00002  -0.00045   0.00115   0.00070   3.21512
   A23        3.11808  -0.00002  -0.00899   0.00063  -0.00836   3.10972
    D1       -2.45798  -0.00002  -0.07101  -0.00002  -0.07104  -2.52902
    D2        1.74279  -0.00002  -0.07167   0.00005  -0.07161   1.67118
    D3       -0.36163  -0.00008  -0.07255  -0.00013  -0.07268  -0.43430
    D4       -0.52473  -0.00002  -0.00246   0.00010  -0.00236  -0.52709
    D5       -2.68095  -0.00003  -0.00245   0.00000  -0.00245  -2.68340
    D6        1.53735  -0.00001  -0.00405   0.00050  -0.00355   1.53380
    D7        2.89631   0.00000   0.00048   0.00003   0.00050   2.89681
    D8       -1.27446   0.00001   0.00028   0.00019   0.00047  -1.27399
    D9        0.74524  -0.00001   0.00061  -0.00014   0.00048   0.74571
   D10        0.61303  -0.00003  -0.00329  -0.00008  -0.00338   0.60965
   D11       -1.46463  -0.00003  -0.00238  -0.00040  -0.00278  -1.46741
   D12        2.78017  -0.00003  -0.00166  -0.00041  -0.00207   2.77810
   D13        1.54735  -0.00000   0.00057  -0.00024   0.00033   1.54768
   D14       -2.68056  -0.00001  -0.00098   0.00019  -0.00079  -2.68135
   D15       -0.56276  -0.00000  -0.00070   0.00004  -0.00066  -0.56342
         Item               Value     Threshold  Converged?
 Maximum Force            0.000439     0.000450     YES
 RMS     Force            0.000080     0.000300     YES
 Maximum Displacement     0.177880     0.001800     NO 
 RMS     Displacement     0.069489     0.001200     NO 
 Predicted change in Energy=-5.525821D-06
 GradGradGradGradGradGradGradGradGradGradGradGradGradGradGradGradGradGrad

                          Input orientation:                          
 ---------------------------------------------------------------------
 Center     Atomic      Atomic             Coordinates (Angstroms)
 Number     Number       Type             X           Y           Z
 ---------------------------------------------------------------------
      1         40           0        1.381865   -0.012342   -0.027169
      2         14           0       -2.148768    0.137958    0.016607
      3          8           0       -0.576554   -0.284657   -0.016336
      4          8           0       -2.230568    1.552689    0.870533
      5          8           0       -3.050431   -1.093956    0.671389
      6          8           0       -2.824431    0.429316   -1.465622
      7          1           0       -2.629283   -1.599130    1.375521
      8          1           0       -3.202671   -0.339153   -1.907568
      9          1           0       -3.058418    2.041186    0.802907
     10          8           0        2.171090   -1.380894   -1.146990
     11          1           0        2.690518   -1.957650   -1.706660
     12          8           0        2.023196   -0.181142    1.791930
     13          1           0        2.465003   -0.149641    2.640310
     14          8           0        1.789388    1.736722   -0.730324
     15          1           0        1.926663    2.634865   -1.031178
 ---------------------------------------------------------------------
                    Distance matrix (angstroms):
                    1          2          3          4          5
     1  Zr   0.000000
     2  Si   3.534102   0.000000
     3  O    1.977290   1.628357   0.000000
     4  O    4.037928   1.654492   2.626431   0.000000
     5  O    4.615530   1.661128   2.692211   2.777870   0.000000
     6  O    4.467341   1.654815   2.768238   2.659372   2.634056
     7  H    4.535940   2.257215   2.806921   3.216823   0.963518
     8  H    4.965952   2.245171   3.236698   3.498842   2.691454
     9  H    4.962068   2.251224   3.498622   0.963607   3.137909
    10  O    1.936443   4.724620   3.166963   5.661351   5.536525
    11  H    2.884005   5.547964   4.041021   6.571262   6.273721
    12  O    1.936213   4.545204   3.168476   4.685045   5.275465
    13  H    2.882270   5.315394   4.040676   5.298908   5.931981
    14  O    1.928659   4.315440   3.192715   4.330895   5.779393
    15  H    2.883148   4.893009   3.977387   4.697891   6.447814
                    6          7          8          9         10
     6  O    0.000000
     7  H    3.496394   0.000000
     8  H    0.963808   3.563003   0.000000
     9  H    2.792686   3.709979   3.610193   0.000000
    10  O    5.322933   5.427179   5.526391   6.546791   0.000000
    11  H    6.014181   6.158625   6.114701   7.439011   0.956914
    12  O    5.872290   4.881562   6.404759   5.633801   3.177818
    13  H    6.721011   5.445408   7.269225   6.219643   3.993245
    14  O    4.851525   5.923440   5.533155   5.093596   3.168412
[...]
 ! A17   A(2,6,8)              115.5002         -DE/DX =    0.0                 !
 ! A18   L(1,10,11,8,-1)       189.1057         -DE/DX =    0.0                 !
 ! A19   L(1,12,13,7,-1)       187.9997         -DE/DX =    0.0                 !
 ! A20   L(1,14,15,4,-1)       176.7333         -DE/DX =    0.0                 !
 ! A21   L(1,10,11,8,-2)       173.7926         -DE/DX =    0.0                 !
 ! A22   L(1,12,13,7,-2)       187.3722         -DE/DX =    0.0                 !
 ! A23   L(1,14,15,4,-2)       179.3933         -DE/DX =    0.0                 !
 ! D1    D(10,1,3,2)          -151.1252         -DE/DX =    0.0                 !
 ! D2    D(12,1,3,2)            89.6859         -DE/DX =    0.0                 !
 ! D3    D(14,1,3,2)           -31.0021         -DE/DX =    0.0                 !
 ! D4    D(4,2,3,1)            -27.3416         -DE/DX =    0.0                 !
 ! D5    D(5,2,3,1)           -150.8905         -DE/DX =    0.0                 !
 ! D6    D(6,2,3,1)             90.7676         -DE/DX =    0.0                 !
 ! D7    D(3,2,4,9)            165.4855         -DE/DX =    0.0                 !
 ! D8    D(5,2,4,9)            -73.5103         -DE/DX =    0.0                 !
 ! D9    D(6,2,4,9)             42.2168         -DE/DX =    0.0                 !
 ! D10   D(3,2,5,7)             34.0811         -DE/DX =    0.0                 !
 ! D11   D(4,2,5,7)            -84.9365         -DE/DX =    0.0                 !
 ! D12   D(6,2,5,7)            158.301          -DE/DX =    0.0                 !
 ! D13   D(3,2,6,8)             88.6979         -DE/DX =    0.0                 !
 ! D14   D(4,2,6,8)           -153.5686         -DE/DX =    0.0                 !
 ! D15   D(5,2,6,8)            -32.2094         -DE/DX =    0.0                 !
 --------------------------------------------------------------------------------
 GradGradGradGradGradGradGradGradGradGradGradGradGradGradGradGradGradGrad

                          Input orientation:                          
 ---------------------------------------------------------------------
 Center     Atomic      Atomic             Coordinates (Angstroms)
 Number     Number       Type             X           Y           Z
 ---------------------------------------------------------------------
      1         40           0        1.379917   -0.010843   -0.041920
      2         14           0       -2.148025    0.138938    0.019903
      3          8           0       -0.576503   -0.280873   -0.052554
      4          8           0       -2.218529    1.517328    0.931145
      5          8           0       -3.039368   -1.120044    0.637169
      6          8           0       -2.844950    0.488936   -1.439464
      7          1           0       -2.603430   -1.660831    1.304860
      8          1           0       -3.229688   -0.261453   -1.906156
      9          1           0       -3.045144    2.010732    0.888819
     10          8           0        2.177903   -1.403540   -1.126316
     11          1           0        2.720453   -2.001040   -1.640510
     12          8           0        2.005160   -0.149334    1.784974
     13          1           0        2.395588   -0.068620    2.655022
     14          8           0        1.796483    1.726900   -0.769991
     15          1           0        1.956734    2.607914   -1.107632
 ---------------------------------------------------------------------
                    Distance matrix (angstroms):
                    1          2          3          4          5
     1  Zr   0.000000
     2  Si   3.531661   0.000000
     3  O    1.974996   1.628242   0.000000
     4  O    4.028769   1.653872   2.626298   0.000000
     5  O    4.606688   1.661489   2.691771   2.777756   0.000000
     6  O    4.477992   1.654677   2.768028   2.658906   2.634202
     7  H    4.517005   2.257803   2.802729   3.223120   0.963486
     8  H    4.978618   2.244996   3.236604   3.498111   2.691078
     9  H    4.953202   2.250212   3.497403   0.963603   3.140879
    10  O    1.937086   4.733572   3.162293   5.665088   5.514541
    11  H    2.883299   5.571225   4.043575   6.586795   6.256158
    12  O    1.935885   4.521894   3.171561   4.620210   5.263744
    13  H    2.882434   5.256554   4.026084   5.174656   5.892027
    14  O    1.929602   4.324893   3.190130   4.365559   5.785382
    15  H    2.885541   4.920998   3.984416   4.772715   6.473256
                    6          7          8          9         10
     6  O    0.000000
     7  H    3.494445   0.000000
     8  H    0.963798   3.558241   0.000000
     9  H    2.788700   3.721368   3.606767   0.000000
    10  O    5.376670   5.370098   5.581626   6.557304   0.000000
    11  H    6.100337   6.093823   6.204911   7.465516   0.956955
    12  O    5.859007   4.873832   6.406297   5.565479   3.174662
    13  H    6.673750   5.417403   7.244672   6.086440   4.015958
    14  O    4.850119   5.927981   5.523297   5.125774   3.173658
    15  H    5.258931   6.696073   5.980793   5.418600   4.017590
                   11         12         13         14         15
    11  H    0.000000
    12  O    3.959090   0.000000
    13  H    4.721375   0.957044   0.000000
    14  O    3.938154   3.176734   3.913251   0.000000
    15  H    4.702094   3.996490   4.638318   0.957010   0.000000
 Stoichiometry    H6O7SiZr
 Framework group  C1[X(H6O7SiZr)]
 Deg. of freedom    39
 Full point group                 C1      NOp   1
 Largest Abelian subgroup         C1      NOp   1
 Largest concise Abelian subgroup C1      NOp   1
                         Standard orientation:                         
 ---------------------------------------------------------------------
 Center     Atomic      Atomic             Coordinates (Angstroms)
 Number     Number       Type             X           Y           Z
 ---------------------------------------------------------------------
      1         40           0        1.367736   -0.018590   -0.012429
      2         14           0       -2.163800   -0.036146    0.011658
      3          8           0       -0.573255   -0.383498   -0.014564
      4          8           0       -2.310411    1.407612    0.804979
      5          8           0       -3.000589   -1.281840    0.724804
      6          8           0       -2.860429    0.157987   -1.476621
      7          1           0       -2.546684   -1.743867    1.438111
      8          1           0       -3.203549   -0.646163   -1.882229
      9          1           0       -3.159202    1.855019    0.716018
     10          8           0        2.243559   -1.455452   -0.971940
     11          1           0        2.819805   -2.066192   -1.430961
     12          8           0        1.978546    0.024625    1.824060
     13          1           0        2.354960    0.195713    2.687180
     14          8           0        1.708609    1.671416   -0.879060
     15          1           0        1.830196    2.528344   -1.287421
 ---------------------------------------------------------------------
 Rotational constants (GHZ):           1.6374368           0.4818030           0.4792464

 **********************************************************************

            Population analysis using the SCF Density.

 **********************************************************************

 Orbital symmetries:
       Occupied  (A) (A) (A) (A) (A) (A) (A) (A) (A) (A) (A) (A)
                 (A) (A) (A) (A) (A) (A) (A) (A) (A) (A) (A) (A)
                 (A) (A) (A) (A) (A) (A) (A) (A) (A) (A) (A) (A)
                 (A) (A) (A) (A) (A) (A) (A) (A)
       Virtual   (A) (A) (A) (A) (A) (A) (A) (A) (A) (A) (A) (A)
                 (A) (A) (A) (A) (A) (A) (A) (A) (A) (A) (A) (A)
                 (A) (A) (A) (A) (A) (A) (A) (A) (A) (A) (A) (A)
                 (A) (A) (A) (A) (A) (A) (A) (A) (A) (A) (A) (A)
                 (A) (A) (A) (A) (A) (A) (A) (A) (A) (A) (A) (A)
                 (A) (A) (A) (A) (A) (A) (A) (A) (A) (A) (A) (A)
                 (A) (A) (A) (A) (A) (A) (A) (A) (A) (A) (A) (A)
                 (A) (A) (A) (A) (A) (A) (A) (A) (A) (A) (A) (A)
                 (A) (A) (A) (A) (A) (A) (A) (A) (A) (A) (A) (A)
                 (A) (A) (A) (A) (A) (A) (A) (A) (A) (A) (A) (A)
                 (A) (A) (A) (A) (A) (A) (A) (A) (A) (A) (A) (A)
                 (A) (A) (A) (A) (A) (A) (A) (A) (A) (A) (A) (A)
                 (A) (A) (A) (A) (A) (A) (A) (A) (A) (A) (A) (A)
                 (A) (A) (A) (A) (A) (A) (A) (A) (A) (A) (A) (A)
                 (A) (A) (A) (A) (A) (A) (A) (A) (A) (A) (A) (A)
                 (A) (A) (A) (A) (A) (A) (A) (A) (A) (A) (A) (A)
                 (A) (A) (A) (A) (A) (A) (A) (A) (A) (A) (A) (A)
                 (A) (A) (A) (A) (A) (A) (A) (A) (A) (A) (A) (A)
                 (A) (A) (A) (A) (A) (A)
 The electronic state is 1-A.
 Alpha  occ. eigenvalues --  -66.19943 -19.15205 -19.15169 -19.14964 -19.14388
 Alpha  occ. eigenvalues --  -19.14270 -19.14161 -19.13199  -5.34044  -3.70008
 Alpha  occ. eigenvalues --   -3.70002  -3.69965  -2.11190  -1.27508  -1.27393
 Alpha  occ. eigenvalues --   -1.27071  -1.02806  -0.99633  -0.99435  -0.96604
 Alpha  occ. eigenvalues --   -0.95407  -0.95321  -0.94108  -0.57469  -0.52280
 Alpha  occ. eigenvalues --   -0.51611  -0.50346  -0.49627  -0.49605  -0.45583
 Alpha  occ. eigenvalues --   -0.39572  -0.37752  -0.37280  -0.36023  -0.35616
 Alpha  occ. eigenvalues --   -0.34706  -0.34228  -0.33933  -0.32924  -0.32705
 Alpha  occ. eigenvalues --   -0.32067  -0.31271  -0.31190  -0.30703
 Alpha virt. eigenvalues --   -0.02901  -0.01285  -0.00659  -0.00533   0.00309
 Alpha virt. eigenvalues --    0.00416   0.00948   0.01179   0.01790   0.02467
 Alpha virt. eigenvalues --    0.02488   0.02965   0.03134   0.03291   0.03379
 Alpha virt. eigenvalues --    0.04262   0.04563   0.04611   0.05427   0.05728
 Alpha virt. eigenvalues --    0.06770   0.09117   0.09639   0.09810   0.10034
 Alpha virt. eigenvalues --    0.10247   0.11399   0.12436   0.13225   0.13885
 Alpha virt. eigenvalues --    0.14583   0.15701   0.16165   0.16342   0.17940
 Alpha virt. eigenvalues --    0.18154   0.18335   0.19100   0.19523   0.19707
 Alpha virt. eigenvalues --    0.20079   0.20397   0.21323   0.21985   0.22266
 Alpha virt. eigenvalues --    0.24017   0.24686   0.25199   0.26156   0.26481
 Alpha virt. eigenvalues --    0.27164   0.27207   0.28038   0.28176   0.28587
 Alpha virt. eigenvalues --    0.29193   0.29443   0.29613   0.29870   0.30921
 Alpha virt. eigenvalues --    0.31329   0.32895   0.33569   0.34843   0.35541
 Alpha virt. eigenvalues --    0.35750   0.35873   0.37540   0.38879   0.39562
 Alpha virt. eigenvalues --    0.41478   0.43955   0.44419   0.46452   0.47642
 Alpha virt. eigenvalues --    0.48413   0.48907   0.49949   0.52624   0.53369
 Alpha virt. eigenvalues --    0.55125   0.57015   0.57900   0.60215   0.60770
 Alpha virt. eigenvalues --    0.61623   0.62234   0.62250   0.64766   0.65645
 Alpha virt. eigenvalues --    0.67390   0.67757   0.69791   0.72704   0.73332
 Alpha virt. eigenvalues --    0.74454   0.76074   0.77609   0.78788   0.81654
 Alpha virt. eigenvalues --    0.85166   0.86284   0.96150   0.97744   0.98560
 Alpha virt. eigenvalues --    1.01807   1.02539   1.04324   1.06068   1.06911
 Alpha virt. eigenvalues --    1.07782   1.18732   1.19765   1.20887   1.21194
 Alpha virt. eigenvalues --    1.21442   1.22748   1.23474   1.23932   1.24813
 Alpha virt. eigenvalues --    1.25685   1.26830   1.27924   1.28605   1.29070
 Alpha virt. eigenvalues --    1.29232   1.30798   1.30937   1.31941   1.32883
 Alpha virt. eigenvalues --    1.33843   1.36844   1.42569   1.43130   1.45923
 Alpha virt. eigenvalues --    1.48411   1.52063   1.57190   1.59490   1.61045
 Alpha virt. eigenvalues --    1.62053   1.63258   1.63477   1.64969   1.67658
 Alpha virt. eigenvalues --    1.70464   1.70964   1.72489   1.72878   1.73418
 Alpha virt. eigenvalues --    1.73693   1.74170   1.75314   1.76695   1.77423
 Alpha virt. eigenvalues --    1.79302   1.80264   1.83024   1.83563   1.84722
 Alpha virt. eigenvalues --    1.86389   1.87148   1.91048   1.91469   1.92190
 Alpha virt. eigenvalues --    1.92866   1.94187   1.94946   1.96404   1.97342
 Alpha virt. eigenvalues --    1.98354   2.00093   2.00801   2.02450   2.07438
 Alpha virt. eigenvalues --    2.08861   2.09130   2.09594   2.13244   2.18275
 Alpha virt. eigenvalues --    2.19270   2.20833   2.22538   2.25973   2.32077
 Alpha virt. eigenvalues --    2.38738   2.41976   2.42591   2.43209   2.45286
 Alpha virt. eigenvalues --    2.50516   2.58165   2.60339   2.62473   2.63416
 Alpha virt. eigenvalues --    2.65027   2.67572   2.68574   2.68707   2.72999
 Alpha virt. eigenvalues --    2.79351   2.80424   2.81664   2.83754   2.87446
 Alpha virt. eigenvalues --    2.90208   2.91468   2.92203   2.92881   2.94162
 Alpha virt. eigenvalues --    2.99633   3.14563   3.46776   3.48503   3.50991
 Alpha virt. eigenvalues --    3.55964   3.59412   3.78477   4.13709   4.14682
 Alpha virt. eigenvalues --    4.19046  30.93280
          Condensed to atoms (all electrons):
               1          2          3          4          5          6
     1  Zr  10.461496   0.145846  -0.030307   0.007520  -0.084838  -0.039606
     2  Si   0.145846  12.960316  -0.716212  -0.080751  -0.157818   0.009474
     3  O   -0.030307  -0.716212   8.951238   0.104963   0.297371   0.098826
     4  O    0.007520  -0.080751   0.104963   8.573578  -0.028174   0.034195
     5  O   -0.084838  -0.157818   0.297371  -0.028174   8.549136   0.017848
     6  O   -0.039606   0.009474   0.098826   0.034195   0.017848   8.524086
     7  H   -0.004071   0.028655  -0.001012  -0.006365   0.241282   0.006502
     8  H    0.001764   0.059217  -0.021577   0.006266  -0.005055   0.233845
     9  H   -0.005151   0.035802   0.010638   0.224745  -0.005410  -0.005115
    10  O    0.025953  -0.009597  -0.023844   0.000492   0.001285   0.000547
    11  H   -0.087170   0.000524  -0.001157   0.000002   0.000003   0.000001
    12  O    0.031964  -0.013089  -0.027216   0.000536   0.001419   0.000264
    13  H   -0.087042   0.000780  -0.000689   0.000014   0.000002   0.000001
    14  O    0.019185  -0.011565  -0.027044   0.001775   0.001011  -0.000784
    15  H   -0.090288   0.001027  -0.000451   0.000066   0.000003   0.000023
               7          8          9         10         11         12
     1  Zr  -0.004071   0.001764  -0.005151   0.025953  -0.087170   0.031964
     2  Si   0.028655   0.059217   0.035802  -0.009597   0.000524  -0.013089
     3  O   -0.001012  -0.021577   0.010638  -0.023844  -0.001157  -0.027216
     4  O   -0.006365   0.006266   0.224745   0.000492   0.000002   0.000536
     5  O    0.241282  -0.005055  -0.005410   0.001285   0.000003   0.001419
     6  O    0.006502   0.233845  -0.005115   0.000547   0.000001   0.000264
     7  H    0.370386   0.000056   0.000087   0.000010  -0.000000  -0.000029
     8  H    0.000056   0.358542   0.000062  -0.000017  -0.000000  -0.000006
     9  H    0.000087   0.000062   0.366838  -0.000002  -0.000000  -0.000022
    10  O    0.000010  -0.000017  -0.000002   8.611137   0.327625  -0.031445
    11  H   -0.000000  -0.000000  -0.000000   0.327625   0.382198  -0.000925
    12  O   -0.000029  -0.000006  -0.000022  -0.031445  -0.000925   8.603247
    13  H   -0.000000  -0.000000  -0.000000  -0.000567  -0.000007   0.327207
    14  O   -0.000001   0.000028  -0.000038  -0.035861  -0.001293  -0.036958
    15  H    0.000000  -0.000000  -0.000000  -0.000733  -0.000008  -0.001000
              13         14         15
     1  Zr  -0.087042   0.019185  -0.090288
     2  Si   0.000780  -0.011565   0.001027
     3  O   -0.000689  -0.027044  -0.000451
     4  O    0.000014   0.001775   0.000066
     5  O    0.000002   0.001011   0.000003
     6  O    0.000001  -0.000784   0.000023
     7  H   -0.000000  -0.000001   0.000000
     8  H   -0.000000   0.000028  -0.000000
     9  H   -0.000000  -0.000038  -0.000000
    10  O   -0.000567  -0.035861  -0.000733
    11  H   -0.000007  -0.001293  -0.000008
    12  O    0.327207  -0.036958  -0.001000
    13  H    0.381706  -0.001609  -0.000011
    14  O   -0.001609   8.614911   0.331155
    15  H   -0.000011   0.331155   0.379324
 Mulliken charges:
               1
     1  Zr   1.734748
     2  Si   1.747392
     3  O   -0.613526
     4  O   -0.838862
     5  O   -0.828065
     6  O   -0.880107
     7  H    0.364501
     8  H    0.366876
     9  H    0.377566
    10  O   -0.864982
    11  H    0.380209
    12  O   -0.853945
    13  H    0.380215
    14  O   -0.852912
    15  H    0.380893
 Sum of Mulliken charges =  -0.00000
 Mulliken charges with hydrogens summed into heavy atoms:
               1
     1  Zr   1.734748
     2  Si   1.747392
     3  O   -0.613526
     4  O   -0.461295
     5  O   -0.463564
     6  O   -0.513231
    10  O   -0.484773
    12  O   -0.473730
    14  O   -0.472020
 Electronic spatial extent (au):  <R**2>=           2226.7960
 Charge=              0.0000 electrons
 Dipole moment (field-independent basis, Debye):
    X=              1.7340    Y=             -0.4182    Z=              0.2834  Tot=              1.8061
 Quadrupole moment (field-independent basis, Debye-Ang):
   XX=            -69.1869   YY=            -67.8069   ZZ=            -68.0987
   XY=             -0.3616   XZ=             -0.0566   YZ=              0.6076
 Traceless Quadrupole moment (field-independent basis, Debye-Ang):
   XX=             -0.8227   YY=              0.5573   ZZ=              0.2654
   XY=             -0.3616   XZ=             -0.0566   YZ=              0.6076
 Octapole moment (field-independent basis, Debye-Ang**2):
  XXX=             52.6316  YYY=              9.3914  ZZZ=             14.5207  XYY=             20.1782
  XXY=              6.4793  XXZ=             -4.0489  XZZ=             25.2887  YZZ=            -10.6074
  YYZ=            -10.6577  XYZ=             -2.2049
 Hexadecapole moment (field-independent basis, Debye-Ang**3):
 XXXX=          -1888.4493 YYYY=           -354.1936 ZZZZ=           -348.3017 XXXY=           -102.4584
 XXXZ=             14.0508 YYYX=             -9.0613 YYYZ=            -23.7054 ZZZX=             44.5137
 ZZZY=              9.6729 XXYY=           -323.6590 XXZZ=           -323.9212 YYZZ=           -109.9272
 XXYZ=             61.6476 YYXZ=            -47.0707 ZZXY=             36.0246
 N-N= 6.335366452301D+02 E-N=-3.304629530874D+03  KE= 8.306843338965D+02
 1\1\GINC-GRA603\FOpt\RB3LYP\Gen\H6O7Si1Zr1\SARASHS\15-Jul-2020\0\\#n B
 3LYP/Gen Pseudo=cards EmpiricalDispersion=GD3 Opt=modredundant\\Title\
 \0,1\Zr,1.3799170366,-0.0108428407,-0.0419202166\Si,-2.1480248849,0.13
 89377815,0.0199025562\O,-0.5765028325,-0.2808729928,-0.0525542375\O,-2
 .2185291927,1.5173277948,0.9311450189\O,-3.039368467,-1.1200438263,0.6
 371688168\O,-2.8449503799,0.4889359473,-1.4394642816\H,-2.6034300172,-
 1.6608305908,1.3048603741\H,-3.2296883286,-0.2614528948,-1.906155563\H
 ,-3.045144014,2.0107324479,0.8888192035\O,2.177902542,-1.4035402153,-1
 .126315676\H,2.720453052,-2.0010403366,-1.6405097959\O,2.0051602543,-0
 .1493341045,1.7849737948\H,2.3955884758,-0.0686201484,2.6550223028\O,1
 .7964830285,1.7268996127,-0.7699905667\H,1.9567337278,2.607914366,-1.1
 076317299\\Version=ES64L-G16RevB.01\State=1-A\HF=-867.1278294\RMSD=2.6
 59e-09\RMSF=4.941e-05\Dipole=0.6741849,-0.2057189,0.0899682\Quadrupole
 =-0.6356323,0.3612463,0.2743861,-0.2125584,-0.0318738,0.4683746\PG=C01
  [X(H6O7Si1Zr1)]\\@


 I KNOW YOU BELIEVE YOU UNDERSTAND WHAT YOU THINK I SAID,
 BUT I AM NOT SURE YOU REALIZE THAT WHAT YOU HEARD IS NOT WHAT I MEANT.
 Job cpu time:       0 days  4 hours 29 minutes 16.9 seconds.
 Elapsed time:       0 days  0 hours 19 minutes 17.7 seconds.
 File lengths (MBytes):  RWF=     48 Int=      0 D2E=      0 Chk=      6 Scr=      1
 Normal termination of Gaussian 16 at Wed Jul 15 14:49:28 2020.
