 Entering Gaussian System, Link 0=g16
 Initial command:
 /opt/software/gaussian/g16.b01/l1.exe "/localscratch/sarashs.35132326.0/Gau-21074.inp" -scrdir="/localscratch/sarashs.35132326.0/"
 Entering Link 1 = /opt/software/gaussian/g16.b01/l1.exe PID=     21076.
  
 Copyright (c) 1988-2017, Gaussian, Inc.  All Rights Reserved.
  
 This is part of the Gaussian(R) 16 program.  It is based on
 the Gaussian(R) 09 system (copyright 2009, Gaussian, Inc.),
 the Gaussian(R) 03 system (copyright 2003, Gaussian, Inc.),
 the Gaussian(R) 98 system (copyright 1998, Gaussian, Inc.),
 the Gaussian(R) 94 system (copyright 1995, Gaussian, Inc.),
 the Gaussian 92(TM) system (copyright 1992, Gaussian, Inc.),
 the Gaussian 90(TM) system (copyright 1990, Gaussian, Inc.),
 the Gaussian 88(TM) system (copyright 1988, Gaussian, Inc.),
 the Gaussian 86(TM) system (copyright 1986, Carnegie Mellon
 University), and the Gaussian 82(TM) system (copyright 1983,
 Carnegie Mellon University). Gaussian is a federally registered
 trademark of Gaussian, Inc.
  
 This software contains proprietary and confidential information,
 including trade secrets, belonging to Gaussian, Inc.
  
 This software is provided under written license and may be
 used, copied, transmitted, or stored only in accord with that
 written license.
  
 The following legend is applicable only to US Government
 contracts under FAR:
  
                    RESTRICTED RIGHTS LEGEND
  
 Use, reproduction and disclosure by the US Government is
 subject to restrictions as set forth in subparagraphs (a)
 and (c) of the Commercial Computer Software - Restricted
 Rights clause in FAR 52.227-19.
  
 Gaussian, Inc.
 340 Quinnipiac St., Bldg. 40, Wallingford CT 06492
  
  
 ---------------------------------------------------------------
 Warning -- This program may not be used in any manner that
 competes with the business of Gaussian, Inc. or will provide
 assistance to any competitor of Gaussian, Inc.  The licensee
 of this program is prohibited from giving any competitor of
 Gaussian, Inc. access to this program.  By using this program,
 the user acknowledges that Gaussian, Inc. is engaged in the
 business of creating and licensing software in the field of
 computational chemistry and represents and warrants to the
 licensee that it is not a competitor of Gaussian, Inc. and that
 it will not use this program in any manner prohibited above.
 ---------------------------------------------------------------
  

 Cite this work as:
 Gaussian 16, Revision B.01,
 M. J. Frisch, G. W. Trucks, H. B. Schlegel, G. E. Scuseria, 
 M. A. Robb, J. R. Cheeseman, G. Scalmani, V. Barone, 
 G. A. Petersson, H. Nakatsuji, X. Li, M. Caricato, A. V. Marenich, 
 J. Bloino, B. G. Janesko, R. Gomperts, B. Mennucci, H. P. Hratchian, 
 J. V. Ortiz, A. F. Izmaylov, J. L. Sonnenberg, D. Williams-Young, 
 F. Ding, F. Lipparini, F. Egidi, J. Goings, B. Peng, A. Petrone, 
 T. Henderson, D. Ranasinghe, V. G. Zakrzewski, J. Gao, N. Rega, 
 G. Zheng, W. Liang, M. Hada, M. Ehara, K. Toyota, R. Fukuda, 
 J. Hasegawa, M. Ishida, T. Nakajima, Y. Honda, O. Kitao, H. Nakai, 
 T. Vreven, K. Throssell, J. A. Montgomery, Jr., J. E. Peralta, 
 F. Ogliaro, M. J. Bearpark, J. J. Heyd, E. N. Brothers, K. N. Kudin, 
 V. N. Staroverov, T. A. Keith, R. Kobayashi, J. Normand, 
 K. Raghavachari, A. P. Rendell, J. C. Burant, S. S. Iyengar, 
 J. Tomasi, M. Cossi, J. M. Millam, M. Klene, C. Adamo, R. Cammi, 
 J. W. Ochterski, R. L. Martin, K. Morokuma, O. Farkas, 
 J. B. Foresman, and D. J. Fox, Gaussian, Inc., Wallingford CT, 2016.
 
 ******************************************
 Gaussian 16:  ES64L-G16RevB.01 20-Dec-2017
                15-Jul-2020 
 ******************************************
 %NProcShared=16
 Will use up to   16 processors via shared memory.
 ------------------------------------------------------------------
 #n B3LYP/Gen Pseudo=cards EmpiricalDispersion=GD3 Opt=modredundant
 ------------------------------------------------------------------
 1/18=120,19=15,26=3,38=1/1,3;
 2/9=110,12=2,17=6,18=5,40=1/2;
 3/5=7,11=2,16=1,17=8,25=1,30=1,71=1,74=-5,124=31/1,2,3;
 4//1;
 5/5=2,38=5/2;
 6/7=2,8=2,9=2,10=2,28=1/1;
 7//1,2,3,16;
 1/18=20,19=15,26=3/3(2);
 2/9=110/2;
 99//99;
 2/9=110/2;
 3/5=7,6=1,11=2,16=1,17=8,25=1,30=1,71=1,74=-5,82=7,124=31/1,2,3;
 4/5=5,16=3,69=1/1;
 5/5=2,38=5/2;
 7//1,2,3,16;
 1/18=20,19=15,26=3/3(-5);
 2/9=110/2;
 6/7=2,8=2,9=2,10=2,19=2,28=1/1;
 99/9=1/99;
 -----
 Title
 -----
 Symbolic Z-matrix:
 Charge =  0 Multiplicity = 1
 Zr                    1.37839  -0.01367  -0.01029 
 Si                   -2.10397   0.2743   -0.00158 
 O                    -0.57498  -0.28442   0.01654 
 O                    -2.06439   1.76377   0.71454 
 O                    -3.10875  -0.80851   0.7597 
 O                    -2.75194   0.47775  -1.51038 
 H                    -2.73485  -1.27591   1.51474 
 H                    -3.19523  -0.29444  -1.87932 
 H                    -2.8478    2.31155   0.59299 
 O                     2.15239  -1.31312  -1.2196 
 H                     2.65751  -1.85105  -1.82887 
 O                     2.04402  -0.29207   1.78758 
 H                     2.51011  -0.3161    2.62313 
 O                     1.78195   1.7752   -0.6111 
 H                     1.91399   2.68442  -0.87911 
 
 The following ModRedundant input section has been read:
 A       1       2       3 F                                                   
 

 GradGradGradGradGradGradGradGradGradGradGradGradGradGradGradGradGradGrad
 Berny optimization.
 Initialization pass.
                           ----------------------------
                           !    Initial Parameters    !
                           ! (Angstroms and Degrees)  !
 --------------------------                            --------------------------
 ! Name  Definition              Value          Derivative Info.                !
 --------------------------------------------------------------------------------
 ! R1    R(1,3)                  1.9722         estimate D2E/DX2                !
 ! R2    R(1,10)                 1.9365         estimate D2E/DX2                !
 ! R3    R(1,12)                 1.9372         estimate D2E/DX2                !
 ! R4    R(1,14)                 1.9297         estimate D2E/DX2                !
 ! R5    R(2,3)                  1.628          estimate D2E/DX2                !
 ! R6    R(2,4)                  1.6532         estimate D2E/DX2                !
 ! R7    R(2,5)                  1.6618         estimate D2E/DX2                !
 ! R8    R(2,6)                  1.6546         estimate D2E/DX2                !
 ! R9    R(4,9)                  0.9636         estimate D2E/DX2                !
 ! R10   R(5,7)                  0.9635         estimate D2E/DX2                !
 ! R11   R(6,8)                  0.9638         estimate D2E/DX2                !
 ! R12   R(10,11)                0.9569         estimate D2E/DX2                !
 ! R13   R(12,13)                0.9571         estimate D2E/DX2                !
 ! R14   R(14,15)                0.9571         estimate D2E/DX2                !
 ! A1    A(3,1,10)             108.1944         estimate D2E/DX2                !
 ! A2    A(3,1,12)             107.9362         estimate D2E/DX2                !
 ! A3    A(3,1,14)             109.793          estimate D2E/DX2                !
 ! A4    A(10,1,12)            110.2299         estimate D2E/DX2                !
 ! A5    A(10,1,14)            110.1226         estimate D2E/DX2                !
 ! A6    A(12,1,14)            110.5061         estimate D2E/DX2                !
 ! A7    A(1,2,3)               15.3655         Frozen                          !
 ! A8    A(3,2,4)              106.3742         estimate D2E/DX2                !
 ! A9    A(3,2,5)              109.8248         estimate D2E/DX2                !
 ! A10   A(3,2,6)              114.8442         estimate D2E/DX2                !
 ! A11   A(4,2,5)              113.7723         estimate D2E/DX2                !
 ! A12   A(4,2,6)              107.0737         estimate D2E/DX2                !
 ! A13   A(5,2,6)              105.1336         estimate D2E/DX2                !
 ! A14   A(1,3,2)              152.0004         estimate D2E/DX2                !
 ! A15   A(2,4,9)              115.9807         estimate D2E/DX2                !
 ! A16   A(2,5,7)              116.1318         estimate D2E/DX2                !
 ! A17   A(2,6,8)              115.5102         estimate D2E/DX2                !
 ! A18   L(1,10,11,8,-1)       186.8008         estimate D2E/DX2                !
 ! A19   L(1,12,13,7,-1)       190.296          estimate D2E/DX2                !
 ! A20   L(1,14,15,4,-1)       175.4011         estimate D2E/DX2                !
 ! A21   L(1,10,11,8,-2)       172.09           estimate D2E/DX2                !
 ! A22   L(1,12,13,7,-2)       184.7398         estimate D2E/DX2                !
 ! A23   L(1,14,15,4,-2)       179.3097         estimate D2E/DX2                !
 ! D1    D(10,1,3,2)          -136.4111         estimate D2E/DX2                !
 ! D2    D(12,1,3,2)           104.3162         estimate D2E/DX2                !
 ! D3    D(14,1,3,2)           -16.202          estimate D2E/DX2                !
 ! D4    D(4,2,3,1)            -29.9128         estimate D2E/DX2                !
 ! D5    D(5,2,3,1)           -153.4543         estimate D2E/DX2                !
 ! D6    D(6,2,3,1)             88.3336         estimate D2E/DX2                !
 ! D7    D(3,2,4,9)            165.9159         estimate D2E/DX2                !
 ! D8    D(5,2,4,9)            -73.0414         estimate D2E/DX2                !
 ! D9    D(6,2,4,9)             42.6621         estimate D2E/DX2                !
 ! D10   D(3,2,5,7)             35.3286         estimate D2E/DX2                !
 ! D11   D(4,2,5,7)            -83.7658         estimate D2E/DX2                !
 ! D12   D(6,2,5,7)            159.3959         estimate D2E/DX2                !
 ! D13   D(3,2,6,8)             88.623          estimate D2E/DX2                !
 ! D14   D(4,2,6,8)           -153.525          estimate D2E/DX2                !
 ! D15   D(5,2,6,8)            -32.1993         estimate D2E/DX2                !
 --------------------------------------------------------------------------------
 Trust Radius=3.00D-01 FncErr=1.00D-07 GrdErr=1.00D-06 EigMax=2.50D+02 EigMin=1.00D-04
 Number of steps in this run=     62 maximum allowed number of steps=    100.
 GradGradGradGradGradGradGradGradGradGradGradGradGradGradGradGradGradGrad

                          Input orientation:                          
 ---------------------------------------------------------------------
 Center     Atomic      Atomic             Coordinates (Angstroms)
 Number     Number       Type             X           Y           Z
 ---------------------------------------------------------------------
      1         40           0        1.378390   -0.013670   -0.010290
      2         14           0       -2.103970    0.274300   -0.001580
      3          8           0       -0.574980   -0.284420    0.016540
      4          8           0       -2.064390    1.763770    0.714540
      5          8           0       -3.108750   -0.808510    0.759700
      6          8           0       -2.751940    0.477750   -1.510380
      7          1           0       -2.734850   -1.275910    1.514740
      8          1           0       -3.195230   -0.294440   -1.879320
      9          1           0       -2.847800    2.311550    0.592990
     10          8           0        2.152390   -1.313120   -1.219600
     11          1           0        2.657510   -1.851050   -1.828870
     12          8           0        2.044020   -0.292070    1.787580
     13          1           0        2.510110   -0.316100    2.623130
     14          8           0        1.781950    1.775200   -0.611100
     15          1           0        1.913990    2.684420   -0.879110
 ---------------------------------------------------------------------
                    Distance matrix (angstroms):
                    1          2          3          4          5
     1  Zr   0.000000
     2  Si   3.494257   0.000000
     3  O    1.972227   1.627976   0.000000
     4  O    3.941752   1.653153   2.626905   0.000000
     5  O    4.621589   1.661809   2.692016   2.776572   0.000000
     6  O    4.421695   1.654610   2.766142   2.660233   2.633447
     7  H    4.564834   2.258404   2.809394   3.213953   0.963509
     8  H    4.948748   2.245044   3.234207   3.499019   2.690014
     9  H    4.861201   2.248818   3.498152   0.963623   3.135389
    10  O    1.936512   4.703198   3.166198   5.566811   5.643745
    11  H    2.884328   5.525196   4.038423   6.467782   6.406039
    12  O    1.937242   4.552767   3.161614   4.717725   5.279610
    13  H    2.882214   5.341106   4.038947   5.375372   5.940238
    14  O    1.929738   4.210058   3.192348   4.068388   5.698561
    15  H    2.884685   4.766838   3.976326   4.383472   6.333575
                    6          7          8          9         10
     6  O    0.000000
     7  H    3.496708   0.000000
     8  H    0.963795   3.562987   0.000000
     9  H    2.792163   3.705705   3.608907   0.000000
    10  O    5.229170   5.600278   5.483610   6.436273   0.000000
    11  H    5.898042   6.370876   6.056414   7.314443   0.956935
    12  O    5.871149   4.886715   6.394990   5.668843   3.177644
    13  H    6.738343   5.446042   7.267973   6.303429   3.986049
    14  O    4.800858   5.850637   5.537519   4.813740   3.169419
    15  H    5.199884   6.559455   5.998179   4.998075   4.019091
                   11         12         13         14         15
    11  H    0.000000
    12  O    3.985662   0.000000
    13  H    4.711486   0.957059   0.000000
    14  O    3.924189   3.177413   3.919693   0.000000
    15  H    4.693118   3.998454   4.650179   0.957050   0.000000
 Stoichiometry    H6O7SiZr
 Framework group  C1[X(H6O7SiZr)]
 Deg. of freedom    39
 Full point group                 C1      NOp   1
 Largest Abelian subgroup         C1      NOp   1
 Largest concise Abelian subgroup C1      NOp   1
                         Standard orientation:                         
 ---------------------------------------------------------------------
 Center     Atomic      Atomic             Coordinates (Angstroms)
 Number     Number       Type             X           Y           Z
 ---------------------------------------------------------------------
      1         40           0        1.352960   -0.022823   -0.013102
      2         14           0       -2.141144   -0.046920    0.009061
      3          8           0       -0.568699   -0.465873   -0.037865
      4          8           0       -2.229935    1.328538    0.921831
      5          8           0       -3.042708   -1.307817    0.608168
      6          8           0       -2.811688    0.302569   -1.462660
      7          1           0       -2.625404   -1.839065    1.295178
      8          1           0       -3.186758   -0.448107   -1.936694
      9          1           0       -3.059247    1.816550    0.870312
     10          8           0        2.233016   -1.071752   -1.382527
     11          1           0        2.780801   -1.474863   -2.055697
     12          8           0        2.049085   -0.484153    1.734894
     13          1           0        2.519423   -0.580778    2.562787
     14          8           0        1.594036    1.859846   -0.361424
     15          1           0        1.643955    2.805200   -0.501993
 ---------------------------------------------------------------------
 Rotational constants (GHZ):           1.6439482           0.4887230           0.4870441
 General basis read from cards:  (5D, 7F)
 ======================================================================================================
                                       Pseudopotential Parameters
 ======================================================================================================
  Center     Atomic      Valence      Angular      Power
  Number     Number     Electrons     Momentum     of R      Exponent        Coefficient   SO-Coeffient
 ======================================================================================================
    1         40           12
                                      G and up 
                                                     2        1.0000000        0.00000000    0.00000000
                                      S - G
                                                     2        8.6365280      150.24299400    0.00000000
                                                     2        3.7176390       18.78003600    0.00000000
                                      P - G
                                                     2        7.6267280       33.19279100    0.00000000
                                                     2        7.4532070       66.38903900    0.00000000
                                                     2        3.3583890        4.62072600    0.00000000
                                                     2        3.2297380        9.26027000    0.00000000
                                      D - G
                                                     2        5.9380860       13.99338300    0.00000000
                                                     2        5.8255440       20.99588200    0.00000000
                                                     2        2.2050190        2.28516600    0.00000000
                                                     2        2.2062920        3.44126000    0.00000000
                                      F - G
                                                     2        4.8002150       -5.23932000    0.00000000
                                                     2        4.7989920       -6.98742400    0.00000000
    2         14
                                   No pseudopotential on this center.
    3          8
                                   No pseudopotential on this center.
    4          8
                                   No pseudopotential on this center.
    5          8
                                   No pseudopotential on this center.
    6          8
                                   No pseudopotential on this center.
    7          1
                                   No pseudopotential on this center.
    8          1
                                   No pseudopotential on this center.
    9          1
                                   No pseudopotential on this center.
   10          8
                                   No pseudopotential on this center.
   11          1
                                   No pseudopotential on this center.
   12          8
                                   No pseudopotential on this center.
   13          1
                                   No pseudopotential on this center.
   14          8
                                   No pseudopotential on this center.
   15          1
                                   No pseudopotential on this center.
 ======================================================================================================
 There are   300 symmetry adapted cartesian basis functions of A   symmetry.
 There are   266 symmetry adapted basis functions of A   symmetry.
   266 basis functions,   576 primitive gaussians,   300 cartesian basis functions
    44 alpha electrons       44 beta electrons
       nuclear repulsion energy       635.5017211012 Hartrees.
 NAtoms=   15 NActive=   15 NUniq=   15 SFac= 1.00D+00 NAtFMM=   60 NAOKFM=F Big=F
 Integral buffers will be    131072 words long.
 Raffenetti 2 integral format.
 Two-electron integral symmetry is turned on.
 Nuclear repulsion after empirical dispersion term =      635.4913898204 Hartrees.
 One-electron integrals computed using PRISM.
 PrsmSu:  requested number of processors reduced to:   4 ShMem   1 Linda.
   1 Symmetry operations used in ECPInt.
 ECPInt:  NShTT=    3321 NPrTT=   20810 LenC2=    3181 LenP2D=   15076.
 LDataN:  DoStor=T MaxTD1= 8 Len=  415
 NBasis=   266 RedAO= T EigKep=  1.05D-04  NBF=   266
 NBsUse=   266 1.00D-06 EigRej= -1.00D+00 NBFU=   266
 Defaulting to unpruned grid for atomic number  40.
 ExpMin= 1.01D-02 ExpMax= 1.61D+04 ExpMxC= 2.43D+03 IAcc=3 IRadAn=         5 AccDes= 0.00D+00
 Harris functional with IExCor=  402 and IRadAn=       5 diagonalized for initial guess.
 HarFok:  IExCor=  402 AccDes= 0.00D+00 IRadAn=         5 IDoV= 1 UseB2=F ITyADJ=14
 ICtDFT=  3500011 ScaDFX=  1.000000  1.000000  1.000000  1.000000
 Defaulting to unpruned grid for atomic number  40.
 FoFCou: FMM=F IPFlag=           0 FMFlag=      100000 FMFlg1=           0
         NFxFlg=           0 DoJE=T BraDBF=F KetDBF=T FulRan=T
         wScrn=  0.000000 ICntrl=       500 IOpCl=  0 I1Cent=   200000004 NGrid=           0
         NMat0=    1 NMatS0=      1 NMatT0=    0 NMatD0=    1 NMtDS0=    0 NMtDT0=    0
 Petite list used in FoFCou.
 Requested convergence on RMS density matrix=1.00D-08 within 128 cycles.
 Requested convergence on MAX density matrix=1.00D-06.
 Requested convergence on             energy=1.00D-06.
 No special actions if energy rises.
 Defaulting to unpruned grid for atomic number  40.
 Defaulting to unpruned grid for atomic number  40.
 Defaulting to unpruned grid for atomic number  40.
 Defaulting to unpruned grid for atomic number  40.
 Defaulting to unpruned grid for atomic number  40.
 Defaulting to unpruned grid for atomic number  40.
 Defaulting to unpruned grid for atomic number  40.
 Defaulting to unpruned grid for atomic number  40.
 Defaulting to unpruned grid for atomic number  40.
 Defaulting to unpruned grid for atomic number  40.
 Defaulting to unpruned grid for atomic number  40.
 Defaulting to unpruned grid for atomic number  40.
 Defaulting to unpruned grid for atomic number  40.
 Defaulting to unpruned grid for atomic number  40.
 Defaulting to unpruned grid for atomic number  40.
 Defaulting to unpruned grid for atomic number  40.
 SCF Done:  E(RB3LYP) =  -867.127651343     A.U. after   13 cycles
            NFock= 13  Conv=0.45D-08     -V/T= 2.0439

 **********************************************************************

            Population analysis using the SCF Density.

 **********************************************************************

 Orbital symmetries:
       Occupied  (A) (A) (A) (A) (A) (A) (A) (A) (A) (A) (A) (A)
                 (A) (A) (A) (A) (A) (A) (A) (A) (A) (A) (A) (A)
                 (A) (A) (A) (A) (A) (A) (A) (A) (A) (A) (A) (A)
                 (A) (A) (A) (A) (A) (A) (A) (A)
       Virtual   (A) (A) (A) (A) (A) (A) (A) (A) (A) (A) (A) (A)
                 (A) (A) (A) (A) (A) (A) (A) (A) (A) (A) (A) (A)
                 (A) (A) (A) (A) (A) (A) (A) (A) (A) (A) (A) (A)
                 (A) (A) (A) (A) (A) (A) (A) (A) (A) (A) (A) (A)
                 (A) (A) (A) (A) (A) (A) (A) (A) (A) (A) (A) (A)
                 (A) (A) (A) (A) (A) (A) (A) (A) (A) (A) (A) (A)
                 (A) (A) (A) (A) (A) (A) (A) (A) (A) (A) (A) (A)
                 (A) (A) (A) (A) (A) (A) (A) (A) (A) (A) (A) (A)
                 (A) (A) (A) (A) (A) (A) (A) (A) (A) (A) (A) (A)
                 (A) (A) (A) (A) (A) (A) (A) (A) (A) (A) (A) (A)
                 (A) (A) (A) (A) (A) (A) (A) (A) (A) (A) (A) (A)
                 (A) (A) (A) (A) (A) (A) (A) (A) (A) (A) (A) (A)
                 (A) (A) (A) (A) (A) (A) (A) (A) (A) (A) (A) (A)
                 (A) (A) (A) (A) (A) (A) (A) (A) (A) (A) (A) (A)
                 (A) (A) (A) (A) (A) (A) (A) (A) (A) (A) (A) (A)
                 (A) (A) (A) (A) (A) (A) (A) (A) (A) (A) (A) (A)
                 (A) (A) (A) (A) (A) (A) (A) (A) (A) (A) (A) (A)
                 (A) (A) (A) (A) (A) (A) (A) (A) (A) (A) (A) (A)
                 (A) (A) (A) (A) (A) (A)
 The electronic state is 1-A.
 Alpha  occ. eigenvalues --  -66.19968 -19.15217 -19.15209 -19.15074 -19.14313
 Alpha  occ. eigenvalues --  -19.14176 -19.14120 -19.13251  -5.34078  -3.70042
 Alpha  occ. eigenvalues --   -3.70035  -3.69999  -2.11110  -1.27430  -1.27315
 Alpha  occ. eigenvalues --   -1.27025  -1.02863  -0.99697  -0.99484  -0.96542
 Alpha  occ. eigenvalues --   -0.95328  -0.95264  -0.94171  -0.57507  -0.52347
 Alpha  occ. eigenvalues --   -0.51672  -0.50261  -0.49586  -0.49518  -0.45545
 Alpha  occ. eigenvalues --   -0.39660  -0.37713  -0.37378  -0.36040  -0.35607
 Alpha  occ. eigenvalues --   -0.34699  -0.34262  -0.34005  -0.32840  -0.32719
 Alpha  occ. eigenvalues --   -0.31993  -0.31247  -0.31166  -0.30758
 Alpha virt. eigenvalues --   -0.02881  -0.01284  -0.00650  -0.00525   0.00370
 Alpha virt. eigenvalues --    0.00453   0.01077   0.01213   0.01831   0.02352
 Alpha virt. eigenvalues --    0.02476   0.03034   0.03226   0.03339   0.03433
 Alpha virt. eigenvalues --    0.04273   0.04536   0.04688   0.05415   0.05731
 Alpha virt. eigenvalues --    0.06740   0.09130   0.09651   0.09884   0.10014
 Alpha virt. eigenvalues --    0.10252   0.11485   0.12408   0.13112   0.13897
 Alpha virt. eigenvalues --    0.14693   0.15532   0.16103   0.16623   0.17903
 Alpha virt. eigenvalues --    0.18007   0.18297   0.19234   0.19487   0.19780
 Alpha virt. eigenvalues --    0.20366   0.20605   0.21385   0.21914   0.22600
 Alpha virt. eigenvalues --    0.23786   0.24590   0.25254   0.26372   0.26672
 Alpha virt. eigenvalues --    0.27329   0.27389   0.27945   0.28255   0.28707
 Alpha virt. eigenvalues --    0.29027   0.29601   0.29876   0.29986   0.31011
 Alpha virt. eigenvalues --    0.31152   0.33018   0.34090   0.34709   0.35406
 Alpha virt. eigenvalues --    0.35782   0.36170   0.37118   0.38689   0.39097
 Alpha virt. eigenvalues --    0.42177   0.44127   0.44274   0.46892   0.48078
 Alpha virt. eigenvalues --    0.48951   0.49259   0.50122   0.51878   0.53511
 Alpha virt. eigenvalues --    0.54511   0.57093   0.58150   0.59815   0.60748
 Alpha virt. eigenvalues --    0.61571   0.62212   0.62801   0.65145   0.65960
 Alpha virt. eigenvalues --    0.67439   0.67770   0.70447   0.72456   0.73776
 Alpha virt. eigenvalues --    0.74788   0.75570   0.77621   0.78548   0.80779
 Alpha virt. eigenvalues --    0.85367   0.85696   0.96248   0.97855   0.98529
 Alpha virt. eigenvalues --    1.01867   1.02643   1.04287   1.06104   1.06786
 Alpha virt. eigenvalues --    1.07855   1.18851   1.19662   1.20845   1.20982
 Alpha virt. eigenvalues --    1.21513   1.23115   1.23692   1.23738   1.24569
 Alpha virt. eigenvalues --    1.25924   1.27004   1.28248   1.28592   1.28970
 Alpha virt. eigenvalues --    1.30087   1.31076   1.31576   1.31753   1.32947
 Alpha virt. eigenvalues --    1.34131   1.36915   1.42963   1.43311   1.45911
 Alpha virt. eigenvalues --    1.48853   1.52180   1.55630   1.59894   1.61031
 Alpha virt. eigenvalues --    1.61229   1.63112   1.63788   1.64993   1.67249
 Alpha virt. eigenvalues --    1.70398   1.70590   1.72053   1.72959   1.73081
 Alpha virt. eigenvalues --    1.73957   1.74464   1.75664   1.76932   1.78008
 Alpha virt. eigenvalues --    1.80063   1.80574   1.82626   1.83519   1.84621
 Alpha virt. eigenvalues --    1.86694   1.87347   1.90881   1.91319   1.91730
 Alpha virt. eigenvalues --    1.92954   1.94102   1.95690   1.96424   1.97335
 Alpha virt. eigenvalues --    1.98947   2.00432   2.01756   2.02857   2.07047
 Alpha virt. eigenvalues --    2.08653   2.08963   2.10338   2.13594   2.17622
 Alpha virt. eigenvalues --    2.18927   2.21139   2.23276   2.26105   2.31602
 Alpha virt. eigenvalues --    2.39791   2.42066   2.42639   2.43814   2.45657
 Alpha virt. eigenvalues --    2.50586   2.58249   2.60992   2.62360   2.63365
 Alpha virt. eigenvalues --    2.65132   2.68143   2.68416   2.69240   2.73241
 Alpha virt. eigenvalues --    2.79128   2.80519   2.81740   2.83820   2.87683
 Alpha virt. eigenvalues --    2.90257   2.91512   2.91655   2.92767   2.94348
 Alpha virt. eigenvalues --    2.98442   3.12843   3.46208   3.48597   3.51088
 Alpha virt. eigenvalues --    3.55280   3.60570   3.75831   4.13514   4.14993
 Alpha virt. eigenvalues --    4.18714  30.87138
          Condensed to atoms (all electrons):
               1          2          3          4          5          6
     1  Zr  10.485312   0.127769  -0.028924   0.007095  -0.086642  -0.036093
     2  Si   0.127769  12.967613  -0.694201  -0.081805  -0.170591   0.021953
     3  O   -0.028924  -0.694201   8.916633   0.101300   0.298914   0.087755
     4  O    0.007095  -0.081805   0.101300   8.574023  -0.031640   0.037437
     5  O   -0.086642  -0.170591   0.298914  -0.031640   8.563366   0.011424
     6  O   -0.036093   0.021953   0.087755   0.037437   0.011424   8.530896
     7  H   -0.004920   0.031758  -0.001163  -0.006288   0.239063   0.006779
     8  H    0.001710   0.057987  -0.020952   0.006166  -0.004783   0.233815
     9  H   -0.005188   0.035243   0.010833   0.226460  -0.005338  -0.004900
    10  O    0.021927  -0.009443  -0.024917   0.000630   0.001004   0.000850
    11  H   -0.087632   0.000493  -0.000965  -0.000000   0.000001   0.000003
    12  O    0.027596  -0.011190  -0.025133  -0.000031   0.001596   0.000119
    13  H   -0.086303   0.000702  -0.000684  -0.000005   0.000001   0.000001
    14  O    0.019906  -0.009657  -0.024899   0.004334   0.001000  -0.001996
    15  H   -0.089574   0.000695  -0.000139   0.000182   0.000003   0.000043
               7          8          9         10         11         12
     1  Zr  -0.004920   0.001710  -0.005188   0.021927  -0.087632   0.027596
     2  Si   0.031758   0.057987   0.035243  -0.009443   0.000493  -0.011190
     3  O   -0.001163  -0.020952   0.010833  -0.024917  -0.000965  -0.025133
     4  O   -0.006288   0.006166   0.226460   0.000630  -0.000000  -0.000031
     5  O    0.239063  -0.004783  -0.005338   0.001004   0.000001   0.001596
     6  O    0.006779   0.233815  -0.004900   0.000850   0.000003   0.000119
     7  H    0.370694   0.000055   0.000092   0.000008   0.000000  -0.000030
     8  H    0.000055   0.358345   0.000064  -0.000026  -0.000000  -0.000006
     9  H    0.000092   0.000064   0.364655  -0.000003  -0.000000  -0.000010
    10  O    0.000008  -0.000026  -0.000003   8.618690   0.328708  -0.032077
    11  H    0.000000  -0.000000  -0.000000   0.328708   0.381935  -0.000901
    12  O   -0.000030  -0.000006  -0.000010  -0.032077  -0.000901   8.614324
    13  H   -0.000000  -0.000000  -0.000000  -0.000759  -0.000008   0.326077
    14  O   -0.000003   0.000027  -0.000091  -0.037418  -0.001380  -0.038236
    15  H    0.000000  -0.000000  -0.000001  -0.000697  -0.000008  -0.000970
              13         14         15
     1  Zr  -0.086303   0.019906  -0.089574
     2  Si   0.000702  -0.009657   0.000695
     3  O   -0.000684  -0.024899  -0.000139
     4  O   -0.000005   0.004334   0.000182
     5  O    0.000001   0.001000   0.000003
     6  O    0.000001  -0.001996   0.000043
     7  H   -0.000000  -0.000003   0.000000
     8  H   -0.000000   0.000027  -0.000000
     9  H   -0.000000  -0.000091  -0.000001
    10  O   -0.000759  -0.037418  -0.000697
    11  H   -0.000008  -0.001380  -0.000008
    12  O    0.326077  -0.038236  -0.000970
    13  H    0.382321  -0.001544  -0.000011
    14  O   -0.001544   8.610823   0.331545
    15  H   -0.000011   0.331545   0.378472
 Mulliken charges:
               1
     1  Zr   1.733961
     2  Si   1.732673
     3  O   -0.593458
     4  O   -0.837857
     5  O   -0.817379
     6  O   -0.888087
     7  H    0.363955
     8  H    0.367599
     9  H    0.378183
    10  O   -0.866477
    11  H    0.379753
    12  O   -0.861128
    13  H    0.380211
    14  O   -0.852409
    15  H    0.380459
 Sum of Mulliken charges =  -0.00000
 Mulliken charges with hydrogens summed into heavy atoms:
               1
     1  Zr   1.733961
     2  Si   1.732673
     3  O   -0.593458
     4  O   -0.459673
     5  O   -0.453424
     6  O   -0.520489
    10  O   -0.486724
    12  O   -0.480917
    14  O   -0.471950
 Electronic spatial extent (au):  <R**2>=           2200.9685
 Charge=             -0.0000 electrons
 Dipole moment (field-independent basis, Debye):
    X=              1.5888    Y=             -0.3188    Z=              0.2454  Tot=              1.6389
 Quadrupole moment (field-independent basis, Debye-Ang):
   XX=            -69.0288   YY=            -68.0680   ZZ=            -67.8348
   XY=             -0.6483   XZ=             -0.0807   YZ=              0.5206
 Traceless Quadrupole moment (field-independent basis, Debye-Ang):
   XX=             -0.7183   YY=              0.2425   ZZ=              0.4757
   XY=             -0.6483   XZ=             -0.0807   YZ=              0.5206
 Octapole moment (field-independent basis, Debye-Ang**2):
  XXX=             54.4997  YYY=             20.0564  ZZZ=              4.9857  XYY=             15.3027
  XXY=              5.7627  XXZ=             -2.7219  XZZ=             26.8292  YZZ=            -20.5855
  YYZ=             -1.4028  XYZ=             -3.5131
 Hexadecapole moment (field-independent basis, Debye-Ang**3):
 XXXX=          -1866.4511 YYYY=           -330.2922 ZZZZ=           -344.9019 XXXY=            -97.6547
 XXXZ=             12.8063 YYYX=             18.6419 YYYZ=            -17.6535 ZZZX=             33.9346
 ZZZY=              7.5445 XXYY=           -343.3744 XXZZ=           -289.0363 YYZZ=           -122.9385
 XXYZ=             50.1808 YYXZ=            -38.0157 ZZXY=              2.5592
 N-N= 6.354913898204D+02 E-N=-3.308548112904D+03  KE= 8.306938830861D+02
 PrsmSu:  requested number of processors reduced to:   2 ShMem   1 Linda.
 PrsmSu:  requested number of processors reduced to:  10 ShMem   1 Linda.
   1 Symmetry operations used in ECPInt.
 ECPInt:  NShTT=    3321 NPrTT=   20810 LenC2=    3181 LenP2D=   15076.
 LDataN:  DoStor=T MaxTD1= 9 Len=  602
 Calling FoFJK, ICntrl=      2127 FMM=F ISym2X=0 I1Cent= 0 IOpClX= 0 NMat=1 NMatS=1 NMatT=0.
 CoulSu:  requested number of processors reduced to:  10 ShMem   1 Linda.
 Defaulting to unpruned grid for atomic number  40.
 Defaulting to unpruned grid for atomic number  40.
 Defaulting to unpruned grid for atomic number  40.
 Defaulting to unpruned grid for atomic number  40.
 Defaulting to unpruned grid for atomic number  40.
 Defaulting to unpruned grid for atomic number  40.
 Defaulting to unpruned grid for atomic number  40.
 Defaulting to unpruned grid for atomic number  40.
 Defaulting to unpruned grid for atomic number  40.
 Defaulting to unpruned grid for atomic number  40.
 Defaulting to unpruned grid for atomic number  40.
 Defaulting to unpruned grid for atomic number  40.
 Defaulting to unpruned grid for atomic number  40.
 Defaulting to unpruned grid for atomic number  40.
 Defaulting to unpruned grid for atomic number  40.
 Defaulting to unpruned grid for atomic number  40.
 ***** Axes restored to original set *****
 -------------------------------------------------------------------
 Center     Atomic                   Forces (Hartrees/Bohr)
 Number     Number              X              Y              Z
 -------------------------------------------------------------------
      1       40           0.002807491    0.000286636    0.000170776
      2       14          -0.001353229   -0.001569703   -0.000026237
      3        8          -0.001385385    0.000841316   -0.000191365
      4        8          -0.000008637    0.000501104    0.000113099
      5        8           0.000125932    0.000305947   -0.000070444
      6        8          -0.000006219    0.000214583   -0.000014142
      7        1           0.000069012   -0.000082895   -0.000042678
      8        1           0.000015131   -0.000004584    0.000003293
      9        1           0.000030211    0.000087131    0.000061218
     10        8          -0.000071970   -0.000124153   -0.000114462
     11        1          -0.000010492    0.000009648    0.000030003
     12        8           0.000020675    0.000021771    0.000106000
     13        1          -0.000024437   -0.000010326   -0.000033467
     14        8          -0.000161551   -0.000478262   -0.000084482
     15        1          -0.000046532    0.000001788    0.000092891
 -------------------------------------------------------------------
 Cartesian Forces:  Max     0.002807491 RMS     0.000591140

 GradGradGradGradGradGradGradGradGradGradGradGradGradGradGradGradGradGrad
 Berny optimization.
 FormGI is forming the generalized inverse of G from B-inverse, IUseBI=4.
 Internal  Forces:  Max     0.002477261 RMS     0.000489235
 Search for a local minimum.
 Step number   1 out of a maximum of   62
 All quantities printed in internal units (Hartrees-Bohrs-Radians)
 Mixed Optimization -- En-DIIS/RFO-DIIS
 Second derivative matrix not updated -- first step.
 ITU=  0
     Eigenvalues ---    0.00230   0.01596   0.01596   0.01597   0.01597
     Eigenvalues ---    0.01598   0.01598   0.03522   0.03617   0.03636
     Eigenvalues ---    0.03969   0.11780   0.12039   0.12694   0.15564
     Eigenvalues ---    0.15873   0.16000   0.16000   0.16000   0.19511
     Eigenvalues ---    0.20181   0.21252   0.21482   0.21527   0.21945
     Eigenvalues ---    0.25000   0.25000   0.25000   0.40909   0.41958
     Eigenvalues ---    0.42175   0.46056   0.54665   0.54701   0.54725
     Eigenvalues ---    0.56111   0.56113   0.561381000.000001000.00000
     Eigenvalues --- 1000.000001000.000001000.000001000.000001000.00000
     Eigenvalues --- 1000.000001000.000001000.000001000.000001000.00000
     Eigenvalues --- 1000.000001000.00000
 RFO step:  Lambda=-7.13337251D-05 EMin= 2.30000000D-03
 Linear search not attempted -- first point.
 Iteration  1 RMS(Cart)=  0.06043069 RMS(Int)=  0.00066151
 Iteration  2 RMS(Cart)=  0.00108491 RMS(Int)=  0.00000043
 Iteration  3 RMS(Cart)=  0.00000023 RMS(Int)=  0.00000042
 Iteration  1 RMS(Cart)=  0.00000035 RMS(Int)=  0.00000013
 Variable       Old X    -DE/DX   Delta X   Delta X   Delta X     New X
                                 (Linear)    (Quad)   (Total)
    R1        3.72697   0.00248   0.00000   0.01321   0.01321   3.74018
    R2        3.65948   0.00010   0.00000   0.00045   0.00045   3.65993
    R3        3.66086   0.00006   0.00000   0.00030   0.00030   3.66116
    R4        3.64668  -0.00049   0.00000  -0.00222  -0.00222   3.64445
    R5        3.07643   0.00083   0.00000   0.00154   0.00154   3.07797
    R6        3.12401   0.00061   0.00000   0.00144   0.00144   3.12545
    R7        3.14036  -0.00032   0.00000  -0.00077  -0.00077   3.13959
    R8        3.12676   0.00003   0.00000   0.00008   0.00008   3.12684
    R9        1.82098   0.00002   0.00000   0.00003   0.00003   1.82101
   R10        1.82077   0.00003   0.00000   0.00006   0.00006   1.82083
   R11        1.82131  -0.00000   0.00000  -0.00001  -0.00001   1.82130
   R12        1.80835  -0.00003   0.00000  -0.00005  -0.00005   1.80829
   R13        1.80858  -0.00004   0.00000  -0.00007  -0.00007   1.80851
   R14        1.80856  -0.00003   0.00000  -0.00006  -0.00006   1.80851
    A1        1.88835  -0.00033   0.00000  -0.00144  -0.00144   1.88691
    A2        1.88384   0.00009   0.00000   0.00050   0.00050   1.88434
    A3        1.91625  -0.00030   0.00000  -0.00126  -0.00126   1.91499
    A4        1.92387   0.00017   0.00000   0.00076   0.00076   1.92463
    A5        1.92200   0.00014   0.00000   0.00025   0.00024   1.92225
    A6        1.92870   0.00022   0.00000   0.00112   0.00112   1.92982
    A7        0.26818  -0.00095   0.00000   0.00000  -0.00000   0.26818
    A8        1.85658  -0.00015   0.00000  -0.00115  -0.00115   1.85543
    A9        1.91680  -0.00000   0.00000   0.00026   0.00026   1.91707
   A10        2.00441   0.00014   0.00000   0.00078   0.00078   2.00519
   A11        1.98570   0.00008   0.00000   0.00032   0.00032   1.98602
   A12        1.86879  -0.00016   0.00000  -0.00109  -0.00109   1.86770
   A13        1.83493   0.00010   0.00000   0.00091   0.00091   1.83584
   A14        2.65291   0.00182   0.00000   0.00068   0.00068   2.65359
   A15        2.02425   0.00020   0.00000   0.00124   0.00124   2.02549
   A16        2.02688  -0.00004   0.00000  -0.00028  -0.00028   2.02660
   A17        2.01603  -0.00001   0.00000  -0.00009  -0.00009   2.01594
   A18        3.26029   0.00002   0.00000   0.00109   0.00109   3.26138
   A19        3.32129  -0.00001   0.00000  -0.00092  -0.00092   3.32037
   A20        3.06133  -0.00012   0.00000  -0.00773  -0.00773   3.05360
   A21        3.00354   0.00002   0.00000   0.00110   0.00110   3.00464
   A22        3.22432  -0.00001   0.00000  -0.00090  -0.00090   3.22342
   A23        3.12954  -0.00013   0.00000  -0.00780  -0.00780   3.12175
    D1       -2.38082  -0.00006   0.00000  -0.06187  -0.06187  -2.44269
    D2        1.82066  -0.00012   0.00000  -0.06226  -0.06226   1.75840
    D3       -0.28278  -0.00026   0.00000  -0.06319  -0.06319  -0.34596
    D4       -0.52208  -0.00003   0.00000  -0.00211  -0.00211  -0.52419
    D5       -2.67828  -0.00004   0.00000  -0.00193  -0.00193  -2.68021
    D6        1.54171  -0.00025   0.00000  -0.00380  -0.00381   1.53791
    D7        2.89578   0.00002   0.00000   0.00004   0.00004   2.89582
    D8       -1.27481  -0.00004   0.00000  -0.00023  -0.00023  -1.27504
    D9        0.74459   0.00003   0.00000   0.00037   0.00037   0.74496
   D10        0.61660  -0.00018   0.00000  -0.00257  -0.00257   0.61403
   D11       -1.46199  -0.00005   0.00000  -0.00149  -0.00149  -1.46348
   D12        2.78198   0.00005   0.00000  -0.00092  -0.00092   2.78107
   D13        1.54676   0.00011   0.00000   0.00085   0.00085   1.54762
   D14       -2.67952  -0.00010   0.00000  -0.00088  -0.00088  -2.68039
   D15       -0.56198  -0.00003   0.00000  -0.00058  -0.00058  -0.56256
         Item               Value     Threshold  Converged?
 Maximum Force            0.002580     0.000450     NO 
 RMS     Force            0.000410     0.000300     NO 
 Maximum Displacement     0.160850     0.001800     NO 
 RMS     Displacement     0.060523     0.001200     NO 
 Predicted change in Energy=-3.609568D-05
 GradGradGradGradGradGradGradGradGradGradGradGradGradGradGradGradGradGrad

                          Input orientation:                          
 ---------------------------------------------------------------------
 Center     Atomic      Atomic             Coordinates (Angstroms)
 Number     Number       Type             X           Y           Z
 ---------------------------------------------------------------------
      1         40           0        1.383262   -0.013083   -0.019488
      2         14           0       -2.107048    0.273901    0.003194
      3          8           0       -0.577113   -0.284895   -0.000670
      4          8           0       -2.065849    1.735067    0.776969
      5          8           0       -3.111351   -0.837193    0.722290
      6          8           0       -2.755708    0.538110   -1.495907
      7          1           0       -2.736312   -1.334690    1.457309
      8          1           0       -3.199524   -0.218478   -1.895273
      9          1           0       -2.848476    2.288532    0.678108
     10          8           0        2.164248   -1.342742   -1.191267
     11          1           0        2.674394   -1.898372   -1.780076
     12          8           0        2.036235   -0.246040    1.789624
     13          1           0        2.493613   -0.246795    2.630274
     14          8           0        1.788379    1.759176   -0.663168
     15          1           0        1.917700    2.665204   -0.942950
 ---------------------------------------------------------------------
                    Distance matrix (angstroms):
                    1          2          3          4          5
     1  Zr   0.000000
     2  Si   3.502162   0.000000
     3  O    1.979219   1.628793   0.000000
     4  O    3.948005   1.653915   2.627034   0.000000
     5  O    4.629356   1.661400   2.692595   2.777154   0.000000
     6  O    4.428849   1.654651   2.767552   2.659808   2.634073
     7  H    4.571484   2.257872   2.808899   3.214933   0.963541
     8  H    4.956076   2.245021   3.235888   3.498919   2.691137
     9  H    4.867410   2.250325   3.498907   0.963639   3.137070
    10  O    1.936749   4.720619   3.170430   5.589328   5.634646
    11  H    2.884616   5.546262   4.042511   6.496943   6.392401
    12  O    1.937402   4.541857   3.168004   4.666621   5.290209
    13  H    2.882488   5.323416   4.043845   5.305772   5.950176
    14  O    1.928561   4.221899   3.195729   4.114565   5.715591
    15  H    2.882990   4.776203   3.976816   4.437560   6.350682
                    6          7          8          9         10
     6  O    0.000000
     7  H    3.497033   0.000000
     8  H    0.963790   3.563748   0.000000
     9  H    2.792655   3.707758   3.609795   0.000000
    10  O    5.276019   5.570504   5.525364   6.465919   0.000000
    11  H    5.958457   6.330414   6.110502   7.353566   0.956907
    12  O    5.862791   4.906404   6.402530   5.614261   3.178813
    13  H    6.722858   5.469139   7.272770   6.227098   3.989204
    14  O    4.778408   5.877181   5.505304   4.855889   3.168921
    15  H    5.164400   6.589403   5.950505   5.048380   4.023193
                   11         12         13         14         15
    11  H    0.000000
    12  O    3.984998   0.000000
    13  H    4.712916   0.957020   0.000000
    14  O    3.925578   3.177815   3.920208   0.000000
    15  H    4.701021   3.994540   4.645357   0.957021   0.000000
 Stoichiometry    H6O7SiZr
 Framework group  C1[X(H6O7SiZr)]
 Deg. of freedom    39
 Full point group                 C1      NOp   1
 Largest Abelian subgroup         C1      NOp   1
 Largest concise Abelian subgroup C1      NOp   1
                         Standard orientation:                         
 ---------------------------------------------------------------------
 Center     Atomic      Atomic             Coordinates (Angstroms)
 Number     Number       Type             X           Y           Z
 ---------------------------------------------------------------------
      1         40           0        1.356498   -0.022804   -0.012591
      2         14           0       -2.145502   -0.047503    0.010385
      3          8           0       -0.572126   -0.467296   -0.024666
      4          8           0       -2.233312    1.352145    0.887145
      5          8           0       -3.047138   -1.291763    0.642146
      6          8           0       -2.815856    0.265531   -1.469651
      7          1           0       -2.629127   -1.805773    1.341768
      8          1           0       -3.191214   -0.496600   -1.924794
      9          1           0       -3.061899    1.840015    0.823684
     10          8           0        2.251403   -1.190578   -1.272133
     11          1           0        2.808375   -1.655200   -1.896295
     12          8           0        2.028561   -0.326703    1.778918
     13          1           0        2.484695   -0.347529    2.619986
     14          8           0        1.602837    1.819991   -0.525204
     15          1           0        1.651320    2.751665   -0.738559
 ---------------------------------------------------------------------
 Rotational constants (GHZ):           1.6436216           0.4872903           0.4856411
 Basis read from rwf:  (5D, 7F)
 Pseudo-potential data read from rwf file.
 There are   300 symmetry adapted cartesian basis functions of A   symmetry.
 There are   266 symmetry adapted basis functions of A   symmetry.
   266 basis functions,   576 primitive gaussians,   300 cartesian basis functions
    44 alpha electrons       44 beta electrons
       nuclear repulsion energy       635.0534121285 Hartrees.
 NAtoms=   15 NActive=   15 NUniq=   15 SFac= 1.00D+00 NAtFMM=   60 NAOKFM=F Big=F
 Integral buffers will be    131072 words long.
 Raffenetti 2 integral format.
 Two-electron integral symmetry is turned on.
 Nuclear repulsion after empirical dispersion term =      635.0430952721 Hartrees.
 One-electron integrals computed using PRISM.
 PrsmSu:  requested number of processors reduced to:   4 ShMem   1 Linda.
   1 Symmetry operations used in ECPInt.
 ECPInt:  NShTT=    3321 NPrTT=   20810 LenC2=    3181 LenP2D=   15061.
 LDataN:  DoStor=T MaxTD1= 8 Len=  415
 NBasis=   266 RedAO= T EigKep=  1.06D-04  NBF=   266
 NBsUse=   266 1.00D-06 EigRej= -1.00D+00 NBFU=   266
 Defaulting to unpruned grid for atomic number  40.
 Initial guess from the checkpoint file:  "/localscratch/sarashs.35132326.0/Gau-21076.chk"
 B after Tr=     0.000000    0.000000   -0.000000
         Rot=    0.999489    0.031945    0.001228    0.000074 Ang=   3.66 deg.
 ExpMin= 1.01D-02 ExpMax= 1.61D+04 ExpMxC= 2.43D+03 IAcc=3 IRadAn=         5 AccDes= 0.00D+00
 Harris functional with IExCor=  402 and IRadAn=       5 diagonalized for initial guess.
 HarFok:  IExCor=  402 AccDes= 0.00D+00 IRadAn=         5 IDoV= 1 UseB2=F ITyADJ=14
 ICtDFT=  3500011 ScaDFX=  1.000000  1.000000  1.000000  1.000000
 Defaulting to unpruned grid for atomic number  40.
 FoFCou: FMM=F IPFlag=           0 FMFlag=      100000 FMFlg1=           0
         NFxFlg=           0 DoJE=T BraDBF=F KetDBF=T FulRan=T
         wScrn=  0.000000 ICntrl=       500 IOpCl=  0 I1Cent=   200000004 NGrid=           0
         NMat0=    1 NMatS0=      1 NMatT0=    0 NMatD0=    1 NMtDS0=    0 NMtDT0=    0
 Petite list used in FoFCou.
 Requested convergence on RMS density matrix=1.00D-08 within 128 cycles.
 Requested convergence on MAX density matrix=1.00D-06.
 Requested convergence on             energy=1.00D-06.
 No special actions if energy rises.
 Defaulting to unpruned grid for atomic number  40.
 Defaulting to unpruned grid for atomic number  40.
 Defaulting to unpruned grid for atomic number  40.
 Defaulting to unpruned grid for atomic number  40.
 Defaulting to unpruned grid for atomic number  40.
 Defaulting to unpruned grid for atomic number  40.
 Defaulting to unpruned grid for atomic number  40.
 Defaulting to unpruned grid for atomic number  40.
 Defaulting to unpruned grid for atomic number  40.
 Defaulting to unpruned grid for atomic number  40.
 Defaulting to unpruned grid for atomic number  40.
 Defaulting to unpruned grid for atomic number  40.
 Defaulting to unpruned grid for atomic number  40.
 Defaulting to unpruned grid for atomic number  40.
 Defaulting to unpruned grid for atomic number  40.
 Defaulting to unpruned grid for atomic number  40.
 SCF Done:  E(RB3LYP) =  -867.127696323     A.U. after   10 cycles
            NFock= 10  Conv=0.56D-08     -V/T= 2.0439
 PrsmSu:  requested number of processors reduced to:   2 ShMem   1 Linda.
 PrsmSu:  requested number of processors reduced to:  10 ShMem   1 Linda.
   1 Symmetry operations used in ECPInt.
 ECPInt:  NShTT=    3321 NPrTT=   20810 LenC2=    3181 LenP2D=   15061.
 LDataN:  DoStor=T MaxTD1= 9 Len=  602
 Calling FoFJK, ICntrl=      2127 FMM=F ISym2X=0 I1Cent= 0 IOpClX= 0 NMat=1 NMatS=1 NMatT=0.
 CoulSu:  requested number of processors reduced to:  10 ShMem   1 Linda.
 Defaulting to unpruned grid for atomic number  40.
 Defaulting to unpruned grid for atomic number  40.
 Defaulting to unpruned grid for atomic number  40.
 Defaulting to unpruned grid for atomic number  40.
 Defaulting to unpruned grid for atomic number  40.
 Defaulting to unpruned grid for atomic number  40.
 Defaulting to unpruned grid for atomic number  40.
 Defaulting to unpruned grid for atomic number  40.
 Defaulting to unpruned grid for atomic number  40.
 Defaulting to unpruned grid for atomic number  40.
 Defaulting to unpruned grid for atomic number  40.
 Defaulting to unpruned grid for atomic number  40.
 Defaulting to unpruned grid for atomic number  40.
 Defaulting to unpruned grid for atomic number  40.
 Defaulting to unpruned grid for atomic number  40.
 Defaulting to unpruned grid for atomic number  40.
 ***** Axes restored to original set *****
 -------------------------------------------------------------------
 Center     Atomic                   Forces (Hartrees/Bohr)
 Number     Number              X              Y              Z
 -------------------------------------------------------------------
      1       40          -0.000284820   -0.000705794    0.000549047
      2       14          -0.000144752   -0.001142928    0.000062015
      3        8           0.000657751    0.001229978   -0.000244575
      4        8          -0.000035186    0.000286535    0.000053193
      5        8          -0.000035872    0.000152304    0.000019137
      6        8          -0.000072799    0.000113155   -0.000031409
      7        1           0.000060702   -0.000055165   -0.000083814
      8        1           0.000005942   -0.000009227   -0.000009302
      9        1           0.000032374    0.000008094    0.000028603
     10        8          -0.000137034    0.000069121    0.000093846
     11        1           0.000025110    0.000007053    0.000002024
     12        8          -0.000007154    0.000068558   -0.000375808
     13        1          -0.000018962   -0.000000904    0.000032201
     14        8          -0.000062743   -0.000085623   -0.000130115
     15        1           0.000017442    0.000064843    0.000034957
 -------------------------------------------------------------------
 Cartesian Forces:  Max     0.001229978 RMS     0.000318938

 GradGradGradGradGradGradGradGradGradGradGradGradGradGradGradGradGradGrad
 Berny optimization.
 Using GEDIIS/GDIIS optimizer.
 FormGI is forming the generalized inverse of G from B-inverse, IUseBI=4.
 Internal  Forces:  Max     0.001427604 RMS     0.000259293
 Search for a local minimum.
 Step number   2 out of a maximum of   62
 All quantities printed in internal units (Hartrees-Bohrs-Radians)
 Mixed Optimization -- En-DIIS/RFO-DIIS
 Swapping is turned off.
 Update second derivatives using D2CorX and points    1    2
 DE= -4.50D-05 DEPred=-3.61D-05 R= 1.25D+00
 TightC=F SS=  1.41D+00  RLast= 1.10D-01 DXNew= 5.0454D-01 3.2935D-01
 Trust test= 1.25D+00 RLast= 1.10D-01 DXMaxT set to 3.29D-01
 ITU=  1  0
     Eigenvalues ---    0.00129   0.01560   0.01596   0.01596   0.01598
     Eigenvalues ---    0.01598   0.01609   0.03498   0.03617   0.03636
     Eigenvalues ---    0.03932   0.11697   0.12020   0.12699   0.15448
     Eigenvalues ---    0.15871   0.15976   0.16000   0.16002   0.20033
     Eigenvalues ---    0.21047   0.21256   0.21518   0.21876   0.24501
     Eigenvalues ---    0.24873   0.25000   0.28640   0.40831   0.41857
     Eigenvalues ---    0.41985   0.47227   0.54666   0.54705   0.54730
     Eigenvalues ---    0.56111   0.56132   0.561481000.000001000.00000
     Eigenvalues --- 1000.000001000.000001000.000001000.000001000.00000
     Eigenvalues --- 1000.000001000.000001000.000001000.000001000.00000
     Eigenvalues --- 1000.000001000.00000
 En-DIIS/RFO-DIIS/Sim-DIIS IScMMF=       -3 using points:     2    1
 RFO step:  Lambda=-3.44312874D-05.
 DidBck=F Rises=F RFO-DIIS coefs:    2.41041   -1.41041
 Iteration  1 RMS(Cart)=  0.08628929 RMS(Int)=  0.00134637
 Iteration  2 RMS(Cart)=  0.00221328 RMS(Int)=  0.00000119
 Iteration  3 RMS(Cart)=  0.00000097 RMS(Int)=  0.00000109
 Iteration  1 RMS(Cart)=  0.00000128 RMS(Int)=  0.00000047
 Iteration  2 RMS(Cart)=  0.00000098 RMS(Int)=  0.00000051
 Variable       Old X    -DE/DX   Delta X   Delta X   Delta X     New X
                                 (Linear)    (Quad)   (Total)
    R1        3.74018  -0.00052   0.01864  -0.01639   0.00225   3.74243
    R2        3.65993  -0.00016   0.00063  -0.00143  -0.00080   3.65913
    R3        3.66116  -0.00034   0.00043  -0.00242  -0.00200   3.65916
    R4        3.64445   0.00000  -0.00314   0.00227  -0.00086   3.64359
    R5        3.07797  -0.00008   0.00218  -0.00210   0.00008   3.07805
    R6        3.12545   0.00030   0.00203  -0.00050   0.00153   3.12697
    R7        3.13959  -0.00011  -0.00109   0.00043  -0.00066   3.13893
    R8        3.12684   0.00008   0.00011   0.00018   0.00029   3.12713
    R9        1.82101  -0.00002   0.00004  -0.00009  -0.00005   1.82097
   R10        1.82083  -0.00001   0.00009  -0.00009  -0.00001   1.82082
   R11        1.82130   0.00001  -0.00001   0.00003   0.00002   1.82132
   R12        1.80829   0.00001  -0.00008   0.00007  -0.00000   1.80829
   R13        1.80851   0.00002  -0.00010   0.00012   0.00002   1.80852
   R14        1.80851   0.00005  -0.00008   0.00018   0.00011   1.80861
    A1        1.88691  -0.00016  -0.00203   0.00044  -0.00160   1.88531
    A2        1.88434   0.00029   0.00071   0.00126   0.00197   1.88631
    A3        1.91499  -0.00014  -0.00178   0.00045  -0.00133   1.91366
    A4        1.92463  -0.00002   0.00107  -0.00078   0.00030   1.92493
    A5        1.92225   0.00001   0.00035  -0.00060  -0.00026   1.92199
    A6        1.92982   0.00003   0.00158  -0.00070   0.00089   1.93071
    A7        0.26818  -0.00080  -0.00000   0.00000  -0.00000   0.26818
    A8        1.85543  -0.00007  -0.00163   0.00055  -0.00108   1.85435
    A9        1.91707   0.00000   0.00037  -0.00000   0.00037   1.91743
   A10        2.00519   0.00012   0.00110   0.00015   0.00125   2.00644
   A11        1.98602   0.00006   0.00045  -0.00005   0.00040   1.98642
   A12        1.86770  -0.00010  -0.00154   0.00020  -0.00134   1.86636
   A13        1.83584  -0.00001   0.00128  -0.00085   0.00044   1.83627
   A14        2.65359   0.00143   0.00096  -0.00083   0.00013   2.65372
   A15        2.02549   0.00006   0.00175  -0.00072   0.00104   2.02653
   A16        2.02660  -0.00006  -0.00040  -0.00024  -0.00063   2.02597
   A17        2.01594   0.00000  -0.00013   0.00012  -0.00001   2.01593
   A18        3.26138   0.00004   0.00154   0.00240   0.00394   3.26531
   A19        3.32037  -0.00006  -0.00130  -0.00391  -0.00520   3.31517
   A20        3.05360  -0.00001  -0.01090   0.00658  -0.00432   3.04928
   A21        3.00464  -0.00002   0.00155  -0.00242  -0.00087   3.00377
   A22        3.22342   0.00001  -0.00127   0.00190   0.00063   3.22405
   A23        3.12175  -0.00009  -0.01100   0.00001  -0.01098   3.11076
    D1       -2.44269  -0.00004  -0.08726  -0.00148  -0.08875  -2.53144
    D2        1.75840  -0.00008  -0.08781  -0.00150  -0.08931   1.66910
    D3       -0.34596  -0.00021  -0.08912  -0.00168  -0.09080  -0.43676
    D4       -0.52419  -0.00002  -0.00298   0.00040  -0.00258  -0.52677
    D5       -2.68021  -0.00005  -0.00273   0.00012  -0.00261  -2.68282
    D6        1.53791  -0.00012  -0.00537   0.00111  -0.00426   1.53365
    D7        2.89582   0.00002   0.00006   0.00016   0.00022   2.89604
    D8       -1.27504   0.00002  -0.00033   0.00050   0.00018  -1.27487
    D9        0.74496  -0.00003   0.00052  -0.00044   0.00008   0.74504
   D10        0.61403  -0.00012  -0.00363  -0.00032  -0.00394   0.61009
   D11       -1.46348  -0.00008  -0.00211  -0.00099  -0.00309  -1.46658
   D12        2.78107   0.00002  -0.00129  -0.00066  -0.00195   2.77911
   D13        1.54762   0.00004   0.00120  -0.00052   0.00068   1.54830
   D14       -2.68039  -0.00004  -0.00124   0.00039  -0.00085  -2.68124
   D15       -0.56256  -0.00003  -0.00082  -0.00001  -0.00083  -0.56339
         Item               Value     Threshold  Converged?
 Maximum Force            0.000434     0.000450     YES
 RMS     Force            0.000122     0.000300     YES
 Maximum Displacement     0.226635     0.001800     NO 
 RMS     Displacement     0.086545     0.001200     NO 
 Predicted change in Energy=-1.762745D-05
 GradGradGradGradGradGradGradGradGradGradGradGradGradGradGradGradGradGrad

                          Input orientation:                          
 ---------------------------------------------------------------------
 Center     Atomic      Atomic             Coordinates (Angstroms)
 Number     Number       Type             X           Y           Z
 ---------------------------------------------------------------------
      1         40           0        1.384196   -0.012353   -0.032255
      2         14           0       -2.107322    0.273025    0.010351
      3          8           0       -0.577377   -0.284749   -0.025173
      4          8           0       -2.063905    1.689617    0.864451
      5          8           0       -3.111608   -0.875553    0.667062
      6          8           0       -2.757640    0.622804   -1.470568
      7          1           0       -2.734920   -1.415052    1.370945
      8          1           0       -3.202422   -0.109501   -1.911936
      9          1           0       -2.845707    2.249016    0.798038
     10          8           0        2.175198   -1.382495   -1.148673
     11          1           0        2.694653   -1.960350   -1.707169
     12          8           0        2.020651   -0.179802    1.788822
     13          1           0        2.463039   -0.146923    2.636831
     14          8           0        1.793405    1.735217   -0.736619
     15          1           0        1.926209    2.634799   -1.035136
 ---------------------------------------------------------------------
                    Distance matrix (angstroms):
                    1          2          3          4          5
     1  Zr   0.000000
     2  Si   3.503421   0.000000
     3  O    1.980408   1.628836   0.000000
     4  O    3.948440   1.654722   2.626655   0.000000
     5  O    4.631027   1.661051   2.692688   2.777902   0.000000
     6  O    4.430234   1.654805   2.768820   2.659261   2.634355
     7  H    4.572051   2.257145   2.807441   3.216484   0.963538
     8  H    4.957792   2.245163   3.237507   3.498767   2.691898
     9  H    4.867777   2.251711   3.498994   0.963614   3.138596
    10  O    1.936328   4.735405   3.169222   5.608969   5.612860
    11  H    2.883978   5.567478   4.042639   6.525286   6.366037
    12  O    1.936346   4.517541   3.170385   4.586152   5.299293
    13  H    2.882018   5.288001   4.043438   5.196867   5.957145
    14  O    1.928103   4.232215   3.194844   4.176643   5.731108
    15  H    2.882180   4.789613   3.976396   4.519160   6.371785
                    6          7          8          9         10
     6  O    0.000000
     7  H    3.496794   0.000000
     8  H    0.963799   3.563753   0.000000
     9  H    2.792650   3.710241   3.610237   0.000000
    10  O    5.334579   5.518949   5.578699   6.495155   0.000000
    11  H    6.037894   6.265174   6.184098   7.395297   0.956905
    12  O    5.839509   4.931118   6.401645   5.528314   3.177929
    13  H    6.687203   5.498127   7.265682   6.107738   3.992434
    14  O    4.742168   5.905232   5.453682   4.913301   3.167915
    15  H    5.116265   6.626964   5.882417   5.126455   4.026604
                   11         12         13         14         15
    11  H    0.000000
    12  O    3.980777   0.000000
    13  H    4.713013   0.957030   0.000000
    14  O    3.925739   3.177545   3.920590   0.000000
    15  H    4.707178   3.988187   4.637834   0.957077   0.000000
 Stoichiometry    H6O7SiZr
 Framework group  C1[X(H6O7SiZr)]
 Deg. of freedom    39
 Full point group                 C1      NOp   1
 Largest Abelian subgroup         C1      NOp   1
 Largest concise Abelian subgroup C1      NOp   1
                         Standard orientation:                         
 ---------------------------------------------------------------------
 Center     Atomic      Atomic             Coordinates (Angstroms)
 Number     Number       Type             X           Y           Z
 ---------------------------------------------------------------------
      1         40           0        1.357215   -0.023121   -0.011980
      2         14           0       -2.146035   -0.048138    0.011894
      3          8           0       -0.572504   -0.468318   -0.011725
      4          8           0       -2.232960    1.373591    0.854055
      5          8           0       -3.048102   -1.275892    0.673700
      6          8           0       -2.816780    0.230597   -1.474977
      7          1           0       -2.628890   -1.774148    1.383916
      8          1           0       -3.192514   -0.541813   -1.912144
      9          1           0       -3.060896    1.860904    0.779219
     10          8           0        2.272565   -1.326718   -1.112950
     11          1           0        2.844204   -1.860736   -1.664060
     12          8           0        1.996155   -0.118727    1.813411
     13          1           0        2.429297   -0.039886    2.663163
     14          8           0        1.613725    1.748091   -0.729330
     15          1           0        1.667886    2.653460   -1.034897
 ---------------------------------------------------------------------
 Rotational constants (GHZ):           1.6440658           0.4871512           0.4854559
 Basis read from rwf:  (5D, 7F)
 Pseudo-potential data read from rwf file.
 There are   300 symmetry adapted cartesian basis functions of A   symmetry.
 There are   266 symmetry adapted basis functions of A   symmetry.
   266 basis functions,   576 primitive gaussians,   300 cartesian basis functions
    44 alpha electrons       44 beta electrons
       nuclear repulsion energy       635.0100810652 Hartrees.
 NAtoms=   15 NActive=   15 NUniq=   15 SFac= 1.00D+00 NAtFMM=   60 NAOKFM=F Big=F
 Integral buffers will be    131072 words long.
 Raffenetti 2 integral format.
 Two-electron integral symmetry is turned on.
 Nuclear repulsion after empirical dispersion term =      634.9997701158 Hartrees.
 One-electron integrals computed using PRISM.
 PrsmSu:  requested number of processors reduced to:   4 ShMem   1 Linda.
   1 Symmetry operations used in ECPInt.
 ECPInt:  NShTT=    3321 NPrTT=   20810 LenC2=    3185 LenP2D=   15063.
 LDataN:  DoStor=T MaxTD1= 8 Len=  415
 NBasis=   266 RedAO= T EigKep=  1.05D-04  NBF=   266
 NBsUse=   266 1.00D-06 EigRej= -1.00D+00 NBFU=   266
 Defaulting to unpruned grid for atomic number  40.
 Initial guess from the checkpoint file:  "/localscratch/sarashs.35132326.0/Gau-21076.chk"
 B after Tr=    -0.000000    0.000000    0.000000
         Rot=    0.999226    0.039308    0.001735    0.000014 Ang=   4.51 deg.
 ExpMin= 1.01D-02 ExpMax= 1.61D+04 ExpMxC= 2.43D+03 IAcc=3 IRadAn=         5 AccDes= 0.00D+00
 Harris functional with IExCor=  402 and IRadAn=       5 diagonalized for initial guess.
 HarFok:  IExCor=  402 AccDes= 0.00D+00 IRadAn=         5 IDoV= 1 UseB2=F ITyADJ=14
 ICtDFT=  3500011 ScaDFX=  1.000000  1.000000  1.000000  1.000000
 Defaulting to unpruned grid for atomic number  40.
 FoFCou: FMM=F IPFlag=           0 FMFlag=      100000 FMFlg1=           0
         NFxFlg=           0 DoJE=T BraDBF=F KetDBF=T FulRan=T
         wScrn=  0.000000 ICntrl=       500 IOpCl=  0 I1Cent=   200000004 NGrid=           0
         NMat0=    1 NMatS0=      1 NMatT0=    0 NMatD0=    1 NMtDS0=    0 NMtDT0=    0
 Petite list used in FoFCou.
 Requested convergence on RMS density matrix=1.00D-08 within 128 cycles.
 Requested convergence on MAX density matrix=1.00D-06.
 Requested convergence on             energy=1.00D-06.
 No special actions if energy rises.
 Defaulting to unpruned grid for atomic number  40.
 Defaulting to unpruned grid for atomic number  40.
 Defaulting to unpruned grid for atomic number  40.
 Defaulting to unpruned grid for atomic number  40.
 Defaulting to unpruned grid for atomic number  40.
 Defaulting to unpruned grid for atomic number  40.
 Defaulting to unpruned grid for atomic number  40.
 Defaulting to unpruned grid for atomic number  40.
 Defaulting to unpruned grid for atomic number  40.
 Defaulting to unpruned grid for atomic number  40.
 Defaulting to unpruned grid for atomic number  40.
 Defaulting to unpruned grid for atomic number  40.
 Defaulting to unpruned grid for atomic number  40.
 Defaulting to unpruned grid for atomic number  40.
 Defaulting to unpruned grid for atomic number  40.
 Defaulting to unpruned grid for atomic number  40.
 SCF Done:  E(RB3LYP) =  -867.127723347     A.U. after   10 cycles
            NFock= 10  Conv=0.58D-08     -V/T= 2.0439
 PrsmSu:  requested number of processors reduced to:   2 ShMem   1 Linda.
 PrsmSu:  requested number of processors reduced to:  10 ShMem   1 Linda.
   1 Symmetry operations used in ECPInt.
 ECPInt:  NShTT=    3321 NPrTT=   20810 LenC2=    3185 LenP2D=   15063.
 LDataN:  DoStor=T MaxTD1= 9 Len=  602
 Calling FoFJK, ICntrl=      2127 FMM=F ISym2X=0 I1Cent= 0 IOpClX= 0 NMat=1 NMatS=1 NMatT=0.
 CoulSu:  requested number of processors reduced to:  10 ShMem   1 Linda.
 Defaulting to unpruned grid for atomic number  40.
 Defaulting to unpruned grid for atomic number  40.
 Defaulting to unpruned grid for atomic number  40.
 Defaulting to unpruned grid for atomic number  40.
 Defaulting to unpruned grid for atomic number  40.
 Defaulting to unpruned grid for atomic number  40.
 Defaulting to unpruned grid for atomic number  40.
 Defaulting to unpruned grid for atomic number  40.
 Defaulting to unpruned grid for atomic number  40.
 Defaulting to unpruned grid for atomic number  40.
 Defaulting to unpruned grid for atomic number  40.
 Defaulting to unpruned grid for atomic number  40.
 Defaulting to unpruned grid for atomic number  40.
 Defaulting to unpruned grid for atomic number  40.
 Defaulting to unpruned grid for atomic number  40.
 Defaulting to unpruned grid for atomic number  40.
 ***** Axes restored to original set *****
 -------------------------------------------------------------------
 Center     Atomic                   Forces (Hartrees/Bohr)
 Number     Number              X              Y              Z
 -------------------------------------------------------------------
      1       40          -0.001110426   -0.000825448    0.000536907
      2       14           0.000092269   -0.000434063    0.000131619
      3        8           0.000892751    0.001136808   -0.000244750
      4        8           0.000028756   -0.000051212   -0.000060008
      5        8          -0.000102802    0.000024511    0.000079618
      6        8          -0.000025895   -0.000015942    0.000004592
      7        1           0.000033222   -0.000064376   -0.000072667
      8        1          -0.000001222   -0.000005741   -0.000012561
      9        1           0.000005315   -0.000032063   -0.000017627
     10        8          -0.000006598   -0.000135122   -0.000049575
     11        1           0.000034925    0.000008959   -0.000002262
     12        8           0.000179735    0.000017267   -0.000156533
     13        1          -0.000060659    0.000003250    0.000047854
     14        8          -0.000005354    0.000365432   -0.000185752
     15        1           0.000045983    0.000007740    0.000001145
 -------------------------------------------------------------------
 Cartesian Forces:  Max     0.001136808 RMS     0.000328605

 GradGradGradGradGradGradGradGradGradGradGradGradGradGradGradGradGradGrad
 Berny optimization.
 Using GEDIIS/GDIIS optimizer.
 FormGI is forming the generalized inverse of G from B-inverse, IUseBI=4.
 Internal  Forces:  Max     0.001163175 RMS     0.000249298
 Search for a local minimum.
 Step number   3 out of a maximum of   62
 All quantities printed in internal units (Hartrees-Bohrs-Radians)
 Mixed Optimization -- En-DIIS/RFO-DIIS
 Swapping is turned off.
 Update second derivatives using D2CorX and points    1    2    3
 DE= -2.70D-05 DEPred=-1.76D-05 R= 1.53D+00
 TightC=F SS=  1.41D+00  RLast= 1.56D-01 DXNew= 5.5390D-01 4.6833D-01
 Trust test= 1.53D+00 RLast= 1.56D-01 DXMaxT set to 4.68D-01
 ITU=  1  1  0
     Eigenvalues ---    0.00061   0.01534   0.01596   0.01597   0.01598
     Eigenvalues ---    0.01599   0.01684   0.03468   0.03617   0.03636
     Eigenvalues ---    0.03952   0.11711   0.12028   0.12721   0.15403
     Eigenvalues ---    0.15872   0.15999   0.16001   0.16024   0.20039
     Eigenvalues ---    0.21229   0.21366   0.21618   0.22684   0.24427
     Eigenvalues ---    0.24845   0.25002   0.33704   0.41057   0.41965
     Eigenvalues ---    0.42793   0.49725   0.54666   0.54709   0.54732
     Eigenvalues ---    0.56113   0.56130   0.561551000.000001000.00000
     Eigenvalues --- 1000.000001000.000001000.000001000.000001000.00000
     Eigenvalues --- 1000.000001000.000001000.000001000.000001000.00000
     Eigenvalues --- 1000.000001000.00000
 En-DIIS/RFO-DIIS/Sim-DIIS IScMMF=       -3 using points:     3    2    1
 RFO step:  Lambda=-2.82987563D-05.
 DidBck=F Rises=F RFO-DIIS coefs:    1.75910   -0.20022   -0.55888
 Iteration  1 RMS(Cart)=  0.09885917 RMS(Int)=  0.00176387
 Iteration  2 RMS(Cart)=  0.00290435 RMS(Int)=  0.00000198
 Iteration  3 RMS(Cart)=  0.00000172 RMS(Int)=  0.00000181
 Iteration  4 RMS(Cart)=  0.00000000 RMS(Int)=  0.00000181
 Iteration  1 RMS(Cart)=  0.00000166 RMS(Int)=  0.00000061
 Iteration  2 RMS(Cart)=  0.00000127 RMS(Int)=  0.00000066
 Iteration  3 RMS(Cart)=  0.00000097 RMS(Int)=  0.00000076
 Variable       Old X    -DE/DX   Delta X   Delta X   Delta X     New X
                                 (Linear)    (Quad)   (Total)
    R1        3.74243  -0.00097   0.00909  -0.00762   0.00147   3.74390
    R2        3.65913   0.00013  -0.00035   0.00067   0.00032   3.65945
    R3        3.65916  -0.00006  -0.00135  -0.00001  -0.00136   3.65780
    R4        3.64359   0.00041  -0.00190   0.00250   0.00060   3.64419
    R5        3.07805  -0.00025   0.00092  -0.00106  -0.00014   3.07792
    R6        3.12697  -0.00011   0.00196  -0.00081   0.00115   3.12812
    R7        3.13893   0.00007  -0.00093   0.00045  -0.00049   3.13844
    R8        3.12713   0.00001   0.00026  -0.00003   0.00023   3.12736
    R9        1.82097  -0.00002  -0.00002  -0.00004  -0.00006   1.82091
   R10        1.82082  -0.00000   0.00003  -0.00002   0.00001   1.82084
   R11        1.82132   0.00001   0.00001   0.00002   0.00003   1.82134
   R12        1.80829   0.00001  -0.00003   0.00004   0.00001   1.80830
   R13        1.80852   0.00001  -0.00003   0.00004   0.00001   1.80853
   R14        1.80861   0.00001   0.00005   0.00002   0.00007   1.80868
    A1        1.88531  -0.00010  -0.00202   0.00007  -0.00195   1.88336
    A2        1.88631   0.00034   0.00177   0.00102   0.00280   1.88911
    A3        1.91366  -0.00011  -0.00171   0.00002  -0.00169   1.91197
    A4        1.92493  -0.00010   0.00065  -0.00059   0.00006   1.92499
    A5        1.92199   0.00001  -0.00006  -0.00013  -0.00020   1.92179
    A6        1.93071  -0.00004   0.00130  -0.00036   0.00094   1.93165
    A7        0.26818  -0.00066  -0.00000   0.00000   0.00000   0.26818
    A8        1.85435  -0.00006  -0.00146   0.00015  -0.00132   1.85303
    A9        1.91743   0.00002   0.00043  -0.00002   0.00040   1.91783
   A10        2.00644   0.00004   0.00138  -0.00017   0.00121   2.00764
   A11        1.98642   0.00006   0.00048   0.00017   0.00066   1.98708
   A12        1.86636   0.00000  -0.00163   0.00042  -0.00121   1.86516
   A13        1.83627  -0.00006   0.00084  -0.00053   0.00031   1.83659
   A14        2.65372   0.00116   0.00048  -0.00038   0.00010   2.65382
   A15        2.02653  -0.00005   0.00148  -0.00076   0.00072   2.02725
   A16        2.02597  -0.00000  -0.00064   0.00014  -0.00049   2.02548
   A17        2.01593   0.00001  -0.00006   0.00011   0.00005   2.01599
   A18        3.26531   0.00005   0.00360   0.00227   0.00587   3.27118
   A19        3.31517  -0.00013  -0.00446  -0.00733  -0.01180   3.30337
   A20        3.04928   0.00007  -0.00760   0.00686  -0.00074   3.04854
   A21        3.00377  -0.00003  -0.00004  -0.00173  -0.00177   3.00200
   A22        3.22405   0.00003  -0.00003   0.00224   0.00221   3.22626
   A23        3.11076  -0.00004  -0.01270   0.00107  -0.01163   3.09914
    D1       -2.53144  -0.00002  -0.10195  -0.00007  -0.10202  -2.63346
    D2        1.66910  -0.00003  -0.10259   0.00003  -0.10256   1.56654
    D3       -0.43676  -0.00013  -0.10424  -0.00017  -0.10440  -0.54116
    D4       -0.52677   0.00001  -0.00314   0.00075  -0.00238  -0.52915
    D5       -2.68282  -0.00003  -0.00306   0.00046  -0.00259  -2.68541
    D6        1.53365  -0.00000  -0.00536   0.00127  -0.00409   1.52956
    D7        2.89604   0.00000   0.00019  -0.00008   0.00011   2.89615
    D8       -1.27487   0.00002   0.00000   0.00010   0.00010  -1.27476
    D9        0.74504  -0.00002   0.00026  -0.00018   0.00008   0.74512
   D10        0.61009  -0.00007  -0.00443  -0.00053  -0.00496   0.60513
   D11       -1.46658  -0.00005  -0.00318  -0.00081  -0.00399  -1.47057
   D12        2.77911  -0.00005  -0.00200  -0.00108  -0.00307   2.77604
   D13        1.54830   0.00001   0.00100  -0.00029   0.00071   1.54901
   D14       -2.68124  -0.00003  -0.00113   0.00008  -0.00106  -2.68230
   D15       -0.56339   0.00001  -0.00095   0.00022  -0.00074  -0.56412
         Item               Value     Threshold  Converged?
 Maximum Force            0.000899     0.000450     NO 
 RMS     Force            0.000163     0.000300     YES
 Maximum Displacement     0.254221     0.001800     NO 
 RMS     Displacement     0.099263     0.001200     NO 
 Predicted change in Energy=-1.281667D-05
 GradGradGradGradGradGradGradGradGradGradGradGradGradGradGradGradGradGrad

                          Input orientation:                          
 ---------------------------------------------------------------------
 Center     Atomic      Atomic             Coordinates (Angstroms)
 Number     Number       Type             X           Y           Z
 ---------------------------------------------------------------------
      1         40           0        1.384699   -0.010323   -0.046777
      2         14           0       -2.107470    0.271704    0.018807
      3          8           0       -0.577663   -0.282710   -0.053205
      4          8           0       -2.061107    1.631563    0.961548
      5          8           0       -3.111739   -0.915672    0.601744
      6          8           0       -2.759801    0.717568   -1.435309
      7          1           0       -2.733134   -1.501364    1.266606
      8          1           0       -3.205739    0.015829   -1.922789
      9          1           0       -2.842056    2.195276    0.932566
     10          8           0        2.185741   -1.425280   -1.098560
     11          1           0        2.715744   -2.026763   -1.621044
     12          8           0        2.003161   -0.103056    1.785041
     13          1           0        2.423758   -0.032901    2.641833
     14          8           0        1.800303    1.706886   -0.819613
     15          1           0        1.941755    2.596942   -1.141877
 ---------------------------------------------------------------------
                    Distance matrix (angstroms):
                    1          2          3          4          5
     1  Zr   0.000000
     2  Si   3.504153   0.000000
     3  O    1.981188   1.628763   0.000000
     4  O    3.947922   1.655332   2.625789   0.000000
     5  O    4.632299   1.660793   2.692794   2.778793   0.000000
     6  O    4.431110   1.654927   2.769926   2.658662   2.634562
     7  H    4.572170   2.256597   2.805900   3.218681   0.963545
     8  H    4.959056   2.245320   3.239020   3.498597   2.692545
     9  H    4.867160   2.252710   3.498519   0.963584   3.140091
    10  O    1.936497   4.749729   3.167749   5.623527   5.586952
    11  H    2.883753   5.588869   4.043064   6.547628   6.335208
    12  O    1.935627   4.489690   3.173654   4.495033   5.312508
    13  H    2.882495   5.244528   4.041555   5.070287   5.965147
    14  O    1.928421   4.246573   3.193837   4.253081   5.746844
    15  H    2.882253   4.811459   3.978074   4.623771   6.396598
                    6          7          8          9         10
     6  O    0.000000
     7  H    3.496386   0.000000
     8  H    0.963812   3.563351   0.000000
     9  H    2.792350   3.713299   3.610444   0.000000
    10  O    5.400332   5.458492   5.641295   6.520172   0.000000
[...]
 ! A16   A(2,5,7)              116.0618         -DE/DX =    0.0                 !
 ! A17   A(2,6,8)              115.5135         -DE/DX =    0.0                 !
 ! A18   L(1,10,11,8,-1)       190.2504         -DE/DX =    0.0                 !
 ! A19   L(1,12,13,7,-1)       186.2943         -DE/DX =    0.0                 !
 ! A20   L(1,14,15,4,-1)       177.0619         -DE/DX =    0.0                 !
 ! A21   L(1,10,11,8,-2)       173.8156         -DE/DX =    0.0                 !
 ! A22   L(1,12,13,7,-2)       189.7307         -DE/DX =    0.0                 !
 ! A23   L(1,14,15,4,-2)       179.422          -DE/DX =    0.0                 !
 ! D1    D(10,1,3,2)          -158.2741         -DE/DX =    0.0                 !
 ! D2    D(12,1,3,2)            82.5983         -DE/DX =    0.0                 !
 ! D3    D(14,1,3,2)           -38.2112         -DE/DX =    0.0                 !
 ! D4    D(4,2,3,1)            -24.8203         -DE/DX =    0.0                 !
 ! D5    D(5,2,3,1)           -148.3645         -DE/DX =    0.0                 !
 ! D6    D(6,2,3,1)             93.1336         -DE/DX =    0.0                 !
 ! D7    D(3,2,4,9)            164.8938         -DE/DX =    0.0                 !
 ! D8    D(5,2,4,9)            -74.1653         -DE/DX =    0.0                 !
 ! D9    D(6,2,4,9)             41.6089         -DE/DX =    0.0                 !
 ! D10   D(3,2,5,7)             32.8176         -DE/DX =    0.0                 !
 ! D11   D(4,2,5,7)            -86.1084         -DE/DX =    0.0                 !
 ! D12   D(6,2,5,7)            157.2089         -DE/DX =    0.0                 !
 ! D13   D(3,2,6,8)             88.68           -DE/DX =    0.0                 !
 ! D14   D(4,2,6,8)           -153.7132         -DE/DX =    0.0                 !
 ! D15   D(5,2,6,8)            -32.3151         -DE/DX =    0.0                 !
 --------------------------------------------------------------------------------
 GradGradGradGradGradGradGradGradGradGradGradGradGradGradGradGradGradGrad

                          Input orientation:                          
 ---------------------------------------------------------------------
 Center     Atomic      Atomic             Coordinates (Angstroms)
 Number     Number       Type             X           Y           Z
 ---------------------------------------------------------------------
      1         40           0        1.381702   -0.008316   -0.067807
      2         14           0       -2.106663    0.274170    0.018065
      3          8           0       -0.578089   -0.272317   -0.113850
      4          8           0       -2.038240    1.605649    0.997956
      5          8           0       -3.088364   -0.935441    0.594740
      6          8           0       -2.802359    0.760083   -1.402451
      7          1           0       -2.680174   -1.554986    1.209429
      8          1           0       -3.259431    0.071172   -1.897817
      9          1           0       -2.815891    2.174652    0.995081
     10          8           0        2.191272   -1.439343   -1.092514
     11          1           0        2.754087   -2.057367   -1.558498
     12          8           0        1.972829   -0.093478    1.773110
     13          1           0        2.314356    0.035405    2.657840
     14          8           0        1.817621    1.704596   -0.841673
     15          1           0        1.993796    2.573221   -1.202641
 ---------------------------------------------------------------------
                    Distance matrix (angstroms):
                    1          2          3          4          5
     1  Zr   0.000000
     2  Si   3.500837   0.000000
     3  O    1.978029   1.628676   0.000000
     4  O    3.928962   1.654601   2.625816   0.000000
     5  O    4.613028   1.661159   2.691340   2.778936   0.000000
     6  O    4.458484   1.654681   2.770148   2.657219   2.635407
     7  H    4.530162   2.257006   2.795544   3.232092   0.963482
     8  H    4.989526   2.245147   3.238845   3.497346   2.693579
     9  H    4.849213   2.251532   3.496447   0.963593   3.147569
    10  O    1.937334   4.758335   3.160553   5.615231   5.565546
    11  H    2.881702   5.616805   4.046827   6.551301   6.326878
    12  O    1.935371   4.456187   3.178016   4.424542   5.264327
    13  H    2.881130   5.154690   4.017860   4.915890   5.864155
    14  O    1.929498   4.264419   3.190195   4.273370   5.753414
    15  H    2.885626   4.856904   3.987123   4.694266   6.431923
                    6          7          8          9         10
     6  O    0.000000
     7  H    3.492333   0.000000
     8  H    0.963795   3.554561   0.000000
     9  H    2.783765   3.738257   3.604194   0.000000
    10  O    5.465334   5.389184   5.713171   6.518488   0.000000
    11  H    6.231891   6.119232   6.388131   7.446838   0.957003
    12  O    5.797859   4.909601   6.393697   5.355518   3.173464
    13  H    6.572054   5.438067   7.198777   5.801773   4.031773
    14  O    4.748767   5.921323   5.436909   5.006401   3.175986
    15  H    5.131324   6.686267   5.860027   5.303011   4.018929
                   11         12         13         14         15
    11  H    0.000000
    12  O    3.945483   0.000000
    13  H    4.727639   0.957078   0.000000
    14  O    3.942483   3.177145   3.908905   0.000000
    15  H    4.706062   3.995850   4.631046   0.956997   0.000000
 Stoichiometry    H6O7SiZr
 Framework group  C1[X(H6O7SiZr)]
 Deg. of freedom    39
 Full point group                 C1      NOp   1
 Largest Abelian subgroup         C1      NOp   1
 Largest concise Abelian subgroup C1      NOp   1
                         Standard orientation:                         
 ---------------------------------------------------------------------
 Center     Atomic      Atomic             Coordinates (Angstroms)
 Number     Number       Type             X           Y           Z
 ---------------------------------------------------------------------
      1         40           0        1.356011   -0.021420   -0.016294
      2         14           0       -2.144662   -0.048499    0.004100
      3          8           0       -0.571476   -0.460060   -0.086934
      4          8           0       -2.212979    1.309885    0.946348
      5          8           0       -3.026111   -1.324635    0.599060
      6          8           0       -2.853662    0.334793   -1.441022
      7          1           0       -2.576358   -1.888454    1.237909
      8          1           0       -3.238472   -0.405277   -1.923846
      9          1           0       -3.037773    1.807081    0.914359
     10          8           0        2.308376   -1.401942   -0.986049
     11          1           0        2.932428   -1.979805   -1.424784
     12          8           0        1.917425   -0.003605    1.835774
     13          1           0        2.229397    0.179146    2.721931
     14          8           0        1.653075    1.701873   -0.831756
     15          1           0        1.758426    2.572618   -1.214572
 ---------------------------------------------------------------------
 Rotational constants (GHZ):           1.6444559           0.4880955           0.4856427

 **********************************************************************

            Population analysis using the SCF Density.

 **********************************************************************

 Orbital symmetries:
       Occupied  (A) (A) (A) (A) (A) (A) (A) (A) (A) (A) (A) (A)
                 (A) (A) (A) (A) (A) (A) (A) (A) (A) (A) (A) (A)
                 (A) (A) (A) (A) (A) (A) (A) (A) (A) (A) (A) (A)
                 (A) (A) (A) (A) (A) (A) (A) (A)
       Virtual   (A) (A) (A) (A) (A) (A) (A) (A) (A) (A) (A) (A)
                 (A) (A) (A) (A) (A) (A) (A) (A) (A) (A) (A) (A)
                 (A) (A) (A) (A) (A) (A) (A) (A) (A) (A) (A) (A)
                 (A) (A) (A) (A) (A) (A) (A) (A) (A) (A) (A) (A)
                 (A) (A) (A) (A) (A) (A) (A) (A) (A) (A) (A) (A)
                 (A) (A) (A) (A) (A) (A) (A) (A) (A) (A) (A) (A)
                 (A) (A) (A) (A) (A) (A) (A) (A) (A) (A) (A) (A)
                 (A) (A) (A) (A) (A) (A) (A) (A) (A) (A) (A) (A)
                 (A) (A) (A) (A) (A) (A) (A) (A) (A) (A) (A) (A)
                 (A) (A) (A) (A) (A) (A) (A) (A) (A) (A) (A) (A)
                 (A) (A) (A) (A) (A) (A) (A) (A) (A) (A) (A) (A)
                 (A) (A) (A) (A) (A) (A) (A) (A) (A) (A) (A) (A)
                 (A) (A) (A) (A) (A) (A) (A) (A) (A) (A) (A) (A)
                 (A) (A) (A) (A) (A) (A) (A) (A) (A) (A) (A) (A)
                 (A) (A) (A) (A) (A) (A) (A) (A) (A) (A) (A) (A)
                 (A) (A) (A) (A) (A) (A) (A) (A) (A) (A) (A) (A)
                 (A) (A) (A) (A) (A) (A) (A) (A) (A) (A) (A) (A)
                 (A) (A) (A) (A) (A) (A) (A) (A) (A) (A) (A) (A)
                 (A) (A) (A) (A) (A) (A)
 The electronic state is 1-A.
 Alpha  occ. eigenvalues --  -66.19944 -19.15216 -19.15193 -19.15017 -19.14379
 Alpha  occ. eigenvalues --  -19.14249 -19.14129 -19.13199  -5.34050  -3.70014
 Alpha  occ. eigenvalues --   -3.70007  -3.69972  -2.11165  -1.27491  -1.27371
 Alpha  occ. eigenvalues --   -1.27033  -1.02829  -0.99666  -0.99456  -0.96585
 Alpha  occ. eigenvalues --   -0.95389  -0.95292  -0.94106  -0.57481  -0.52290
 Alpha  occ. eigenvalues --   -0.51652  -0.50331  -0.49590  -0.49578  -0.45503
 Alpha  occ. eigenvalues --   -0.39568  -0.37745  -0.37307  -0.36001  -0.35596
 Alpha  occ. eigenvalues --   -0.34726  -0.34242  -0.33969  -0.32917  -0.32661
 Alpha  occ. eigenvalues --   -0.32079  -0.31260  -0.31184  -0.30734
 Alpha virt. eigenvalues --   -0.02893  -0.01271  -0.00628  -0.00521   0.00307
 Alpha virt. eigenvalues --    0.00432   0.00907   0.01157   0.01809   0.02486
 Alpha virt. eigenvalues --    0.02551   0.02950   0.03138   0.03310   0.03400
 Alpha virt. eigenvalues --    0.04246   0.04575   0.04631   0.05473   0.05706
 Alpha virt. eigenvalues --    0.06796   0.09124   0.09700   0.09749   0.10034
 Alpha virt. eigenvalues --    0.10294   0.11507   0.12359   0.13157   0.13933
 Alpha virt. eigenvalues --    0.14495   0.15793   0.16276   0.16419   0.17721
 Alpha virt. eigenvalues --    0.18112   0.18305   0.19016   0.19443   0.19810
 Alpha virt. eigenvalues --    0.20064   0.20648   0.21298   0.22187   0.22307
 Alpha virt. eigenvalues --    0.24116   0.25108   0.25307   0.26011   0.26434
 Alpha virt. eigenvalues --    0.27194   0.27313   0.28187   0.28264   0.28695
 Alpha virt. eigenvalues --    0.29081   0.29574   0.29642   0.29964   0.31068
 Alpha virt. eigenvalues --    0.31550   0.32930   0.33105   0.34916   0.35497
 Alpha virt. eigenvalues --    0.35698   0.35950   0.37670   0.39369   0.40139
 Alpha virt. eigenvalues --    0.41458   0.43748   0.44681   0.46337   0.47179
 Alpha virt. eigenvalues --    0.48291   0.49134   0.49706   0.52917   0.54158
 Alpha virt. eigenvalues --    0.54977   0.56847   0.57611   0.60234   0.60883
 Alpha virt. eigenvalues --    0.61314   0.61875   0.62246   0.65103   0.65942
 Alpha virt. eigenvalues --    0.67415   0.68271   0.70430   0.72692   0.72884
 Alpha virt. eigenvalues --    0.74807   0.76006   0.77653   0.78673   0.81774
 Alpha virt. eigenvalues --    0.84358   0.86329   0.96206   0.97795   0.98419
 Alpha virt. eigenvalues --    1.01916   1.02582   1.04187   1.06535   1.07185
 Alpha virt. eigenvalues --    1.07663   1.18676   1.19589   1.20715   1.21173
 Alpha virt. eigenvalues --    1.21394   1.22810   1.23447   1.23756   1.25476
 Alpha virt. eigenvalues --    1.26140   1.27246   1.28053   1.28768   1.29055
 Alpha virt. eigenvalues --    1.29598   1.30752   1.31300   1.31978   1.33037
 Alpha virt. eigenvalues --    1.34408   1.36993   1.42025   1.43081   1.45995
 Alpha virt. eigenvalues --    1.48017   1.51293   1.56214   1.59623   1.61021
 Alpha virt. eigenvalues --    1.61644   1.63245   1.63515   1.65368   1.67707
 Alpha virt. eigenvalues --    1.70526   1.70965   1.72354   1.72759   1.73152
 Alpha virt. eigenvalues --    1.73972   1.74647   1.75970   1.77124   1.77934
 Alpha virt. eigenvalues --    1.79298   1.80094   1.82870   1.83481   1.84661
 Alpha virt. eigenvalues --    1.86488   1.86546   1.91037   1.91508   1.91919
 Alpha virt. eigenvalues --    1.92775   1.93828   1.94840   1.96771   1.97626
 Alpha virt. eigenvalues --    1.98189   2.00211   2.01518   2.02880   2.07862
 Alpha virt. eigenvalues --    2.08496   2.09259   2.10403   2.12812   2.18041
 Alpha virt. eigenvalues --    2.19657   2.20693   2.23993   2.26059   2.32287
 Alpha virt. eigenvalues --    2.39503   2.41990   2.42747   2.43405   2.45241
 Alpha virt. eigenvalues --    2.50418   2.57832   2.60639   2.62388   2.63377
 Alpha virt. eigenvalues --    2.65058   2.67978   2.68577   2.69016   2.72972
 Alpha virt. eigenvalues --    2.79429   2.80453   2.82278   2.83807   2.87303
 Alpha virt. eigenvalues --    2.90054   2.91493   2.92757   2.93159   2.94425
 Alpha virt. eigenvalues --    2.97920   3.13641   3.46745   3.48565   3.51401
 Alpha virt. eigenvalues --    3.56943   3.60908   3.73500   4.13425   4.14493
 Alpha virt. eigenvalues --    4.19181  30.86497
          Condensed to atoms (all electrons):
               1          2          3          4          5          6
     1  Zr  10.483405   0.133763  -0.023526   0.005541  -0.087342  -0.035395
     2  Si   0.133763  12.976038  -0.701156  -0.097339  -0.165765   0.009395
     3  O   -0.023526  -0.701156   8.919605   0.105116   0.299053   0.094777
     4  O    0.005541  -0.097339   0.105116   8.587305  -0.025806   0.038681
     5  O   -0.087342  -0.165765   0.299053  -0.025806   8.561024   0.010303
     6  O   -0.035395   0.009395   0.094777   0.038681   0.010303   8.529368
     7  H   -0.004460   0.028636   0.000001  -0.006191   0.240219   0.006551
     8  H    0.002113   0.058159  -0.021638   0.006172  -0.004801   0.234298
     9  H   -0.004982   0.035421   0.010251   0.225235  -0.005091  -0.004498
    10  O    0.022800  -0.007814  -0.021409   0.000448   0.001334   0.000379
    11  H   -0.086959   0.000354  -0.001127   0.000001   0.000003  -0.000000
    12  O    0.032489  -0.013744  -0.026815   0.001066   0.001214   0.000308
    13  H   -0.087057   0.000787  -0.000589   0.000031   0.000002   0.000001
    14  O    0.016196  -0.006978  -0.028232   0.001386   0.001030  -0.000964
    15  H   -0.090022   0.000908  -0.000361   0.000062   0.000003   0.000037
               7          8          9         10         11         12
     1  Zr  -0.004460   0.002113  -0.004982   0.022800  -0.086959   0.032489
     2  Si   0.028636   0.058159   0.035421  -0.007814   0.000354  -0.013744
     3  O    0.000001  -0.021638   0.010251  -0.021409  -0.001127  -0.026815
     4  O   -0.006191   0.006172   0.225235   0.000448   0.000001   0.001066
     5  O    0.240219  -0.004801  -0.005091   0.001334   0.000003   0.001214
     6  O    0.006551   0.234298  -0.004498   0.000379  -0.000000   0.000308
     7  H    0.369983   0.000056   0.000080   0.000006  -0.000000  -0.000021
     8  H    0.000056   0.358556   0.000056  -0.000017  -0.000000  -0.000007
     9  H    0.000080   0.000056   0.363694  -0.000002  -0.000000  -0.000028
    10  O    0.000006  -0.000017  -0.000002   8.610714   0.328380  -0.031675
    11  H   -0.000000  -0.000000  -0.000000   0.328380   0.381709  -0.000973
    12  O   -0.000021  -0.000007  -0.000028  -0.031675  -0.000973   8.599239
    13  H   -0.000000  -0.000000  -0.000000  -0.000449  -0.000006   0.328046
    14  O    0.000001   0.000040  -0.000010  -0.036443  -0.001281  -0.036768
    15  H   -0.000000  -0.000000  -0.000000  -0.000726  -0.000008  -0.001015
              13         14         15
     1  Zr  -0.087057   0.016196  -0.090022
     2  Si   0.000787  -0.006978   0.000908
     3  O   -0.000589  -0.028232  -0.000361
     4  O    0.000031   0.001386   0.000062
     5  O    0.000002   0.001030   0.000003
     6  O    0.000001  -0.000964   0.000037
     7  H   -0.000000   0.000001  -0.000000
     8  H   -0.000000   0.000040  -0.000000
     9  H   -0.000000  -0.000010  -0.000000
    10  O   -0.000449  -0.036443  -0.000726
    11  H   -0.000006  -0.001281  -0.000008
    12  O    0.328046  -0.036768  -0.001015
    13  H    0.381032  -0.001660  -0.000012
    14  O   -0.001660   8.616876   0.331046
    15  H   -0.000012   0.331046   0.379299
 Mulliken charges:
               1
     1  Zr   1.723437
     2  Si   1.749332
     3  O   -0.603951
     4  O   -0.841709
     5  O   -0.825382
     6  O   -0.883239
     7  H    0.365139
     8  H    0.367012
     9  H    0.379875
    10  O   -0.865527
    11  H    0.379907
    12  O   -0.851316
    13  H    0.379874
    14  O   -0.854239
    15  H    0.380788
 Sum of Mulliken charges =  -0.00000
 Mulliken charges with hydrogens summed into heavy atoms:
               1
     1  Zr   1.723437
     2  Si   1.749332
     3  O   -0.603951
     4  O   -0.461834
     5  O   -0.460243
     6  O   -0.516227
    10  O   -0.485621
    12  O   -0.471443
    14  O   -0.473451
 Electronic spatial extent (au):  <R**2>=           2203.7208
 Charge=              0.0000 electrons
 Dipole moment (field-independent basis, Debye):
    X=              1.6385    Y=             -0.2927    Z=              0.2705  Tot=              1.6862
 Quadrupole moment (field-independent basis, Debye-Ang):
   XX=            -69.3906   YY=            -67.6282   ZZ=            -68.1258
   XY=             -0.4221   XZ=             -0.1023   YZ=              0.6590
 Traceless Quadrupole moment (field-independent basis, Debye-Ang):
   XX=             -1.0091   YY=              0.7533   ZZ=              0.2557
   XY=             -0.4221   XZ=             -0.1023   YZ=              0.6590
 Octapole moment (field-independent basis, Debye-Ang**2):
  XXX=             54.6216  YYY=             10.2054  ZZZ=             12.1178  XYY=             19.8561
  XXY=              4.8100  XXZ=             -6.0460  XZZ=             22.4733  YZZ=             -8.8988
  YYZ=             -6.4329  XYZ=             -2.2502
 Hexadecapole moment (field-independent basis, Debye-Ang**3):
 XXXX=          -1869.4904 YYYY=           -344.1338 ZZZZ=           -342.9194 XXXY=           -104.0630
 XXXZ=              4.5982 YYYX=             -2.2836 YYYZ=            -26.7094 ZZZX=             55.0359
 ZZZY=             12.3563 XXYY=           -325.9475 XXZZ=           -313.9293 YYZZ=           -114.7284
 XXYZ=             63.1233 YYXZ=            -55.0922 ZZXY=             29.9207
 N-N= 6.351618360402D+02 E-N=-3.307881891198D+03  KE= 8.306839830748D+02
 1\1\GINC-GRA631\FOpt\RB3LYP\Gen\H6O7Si1Zr1\SARASHS\15-Jul-2020\0\\#n B
 3LYP/Gen Pseudo=cards EmpiricalDispersion=GD3 Opt=modredundant\\Title\
 \0,1\Zr,1.3817023208,-0.0083160712,-0.0678072906\Si,-2.1066626746,0.27
 41701317,0.0180647657\O,-0.5780894218,-0.2723173309,-0.1138497085\O,-2
 .0382403488,1.6056494829,0.9979555348\O,-3.0883642848,-0.9354408419,0.
 5947395817\O,-2.8023588322,0.7600832198,-1.4024510579\H,-2.6801744622,
 -1.5549863253,1.2094289239\H,-3.259431211,0.071171597,-1.8978167432\H,
 -2.8158905636,2.1746517032,0.9950813092\O,2.1912715648,-1.4393428955,-
 1.0925143268\H,2.7540869736,-2.0573667875,-1.5584979792\O,1.9728287712
 ,-0.0934779515,1.773110054\H,2.3143556025,0.0354048284,2.6578403964\O,
 1.817620967,1.7045962896,-0.841672743\H,1.9937955992,2.5732209513,-1.2
 026407165\\Version=ES64L-G16RevB.01\State=1-A\HF=-867.1277624\RMSD=7.1
 09e-09\RMSF=1.235e-04\Dipole=0.6334665,-0.174797,0.0910643\Quadrupole=
 -0.7962982,0.5764458,0.2198524,-0.1839296,-0.0212125,0.5089281\PG=C01 
 [X(H6O7Si1Zr1)]\\@


 If your ship doesn't come in, swim out to it!
                          -- Jonathan Winters
 Job cpu time:       0 days  4 hours 42 minutes 41.3 seconds.
 Elapsed time:       0 days  0 hours 20 minutes 22.4 seconds.
 File lengths (MBytes):  RWF=     48 Int=      0 D2E=      0 Chk=      6 Scr=      1
 Normal termination of Gaussian 16 at Wed Jul 15 14:54:34 2020.
