 Entering Gaussian System, Link 0=g16
 Initial command:
 /opt/software/gaussian/g16.b01/l1.exe "/localscratch/sarashs.35132330.0/Gau-9543.inp" -scrdir="/localscratch/sarashs.35132330.0/"
 Entering Link 1 = /opt/software/gaussian/g16.b01/l1.exe PID=      9548.
  
 Copyright (c) 1988-2017, Gaussian, Inc.  All Rights Reserved.
  
 This is part of the Gaussian(R) 16 program.  It is based on
 the Gaussian(R) 09 system (copyright 2009, Gaussian, Inc.),
 the Gaussian(R) 03 system (copyright 2003, Gaussian, Inc.),
 the Gaussian(R) 98 system (copyright 1998, Gaussian, Inc.),
 the Gaussian(R) 94 system (copyright 1995, Gaussian, Inc.),
 the Gaussian 92(TM) system (copyright 1992, Gaussian, Inc.),
 the Gaussian 90(TM) system (copyright 1990, Gaussian, Inc.),
 the Gaussian 88(TM) system (copyright 1988, Gaussian, Inc.),
 the Gaussian 86(TM) system (copyright 1986, Carnegie Mellon
 University), and the Gaussian 82(TM) system (copyright 1983,
 Carnegie Mellon University). Gaussian is a federally registered
 trademark of Gaussian, Inc.
  
 This software contains proprietary and confidential information,
 including trade secrets, belonging to Gaussian, Inc.
  
 This software is provided under written license and may be
 used, copied, transmitted, or stored only in accord with that
 written license.
  
 The following legend is applicable only to US Government
 contracts under FAR:
  
                    RESTRICTED RIGHTS LEGEND
  
 Use, reproduction and disclosure by the US Government is
 subject to restrictions as set forth in subparagraphs (a)
 and (c) of the Commercial Computer Software - Restricted
 Rights clause in FAR 52.227-19.
  
 Gaussian, Inc.
 340 Quinnipiac St., Bldg. 40, Wallingford CT 06492
  
  
 ---------------------------------------------------------------
 Warning -- This program may not be used in any manner that
 competes with the business of Gaussian, Inc. or will provide
 assistance to any competitor of Gaussian, Inc.  The licensee
 of this program is prohibited from giving any competitor of
 Gaussian, Inc. access to this program.  By using this program,
 the user acknowledges that Gaussian, Inc. is engaged in the
 business of creating and licensing software in the field of
 computational chemistry and represents and warrants to the
 licensee that it is not a competitor of Gaussian, Inc. and that
 it will not use this program in any manner prohibited above.
 ---------------------------------------------------------------
  

 Cite this work as:
 Gaussian 16, Revision B.01,
 M. J. Frisch, G. W. Trucks, H. B. Schlegel, G. E. Scuseria, 
 M. A. Robb, J. R. Cheeseman, G. Scalmani, V. Barone, 
 G. A. Petersson, H. Nakatsuji, X. Li, M. Caricato, A. V. Marenich, 
 J. Bloino, B. G. Janesko, R. Gomperts, B. Mennucci, H. P. Hratchian, 
 J. V. Ortiz, A. F. Izmaylov, J. L. Sonnenberg, D. Williams-Young, 
 F. Ding, F. Lipparini, F. Egidi, J. Goings, B. Peng, A. Petrone, 
 T. Henderson, D. Ranasinghe, V. G. Zakrzewski, J. Gao, N. Rega, 
 G. Zheng, W. Liang, M. Hada, M. Ehara, K. Toyota, R. Fukuda, 
 J. Hasegawa, M. Ishida, T. Nakajima, Y. Honda, O. Kitao, H. Nakai, 
 T. Vreven, K. Throssell, J. A. Montgomery, Jr., J. E. Peralta, 
 F. Ogliaro, M. J. Bearpark, J. J. Heyd, E. N. Brothers, K. N. Kudin, 
 V. N. Staroverov, T. A. Keith, R. Kobayashi, J. Normand, 
 K. Raghavachari, A. P. Rendell, J. C. Burant, S. S. Iyengar, 
 J. Tomasi, M. Cossi, J. M. Millam, M. Klene, C. Adamo, R. Cammi, 
 J. W. Ochterski, R. L. Martin, K. Morokuma, O. Farkas, 
 J. B. Foresman, and D. J. Fox, Gaussian, Inc., Wallingford CT, 2016.
 
 ******************************************
 Gaussian 16:  ES64L-G16RevB.01 20-Dec-2017
                15-Jul-2020 
 ******************************************
 %NProcShared=16
 Will use up to   16 processors via shared memory.
 ------------------------------------------------------------------
 #n B3LYP/Gen Pseudo=cards EmpiricalDispersion=GD3 Opt=modredundant
 ------------------------------------------------------------------
 1/18=120,19=15,26=3,38=1/1,3;
 2/9=110,12=2,17=6,18=5,40=1/2;
 3/5=7,11=2,16=1,17=8,25=1,30=1,71=1,74=-5,124=31/1,2,3;
 4//1;
 5/5=2,38=5/2;
 6/7=2,8=2,9=2,10=2,28=1/1;
 7//1,2,3,16;
 1/18=20,19=15,26=3/3(2);
 2/9=110/2;
 99//99;
 2/9=110/2;
 3/5=7,6=1,11=2,16=1,17=8,25=1,30=1,71=1,74=-5,82=7,124=31/1,2,3;
 4/5=5,16=3,69=1/1;
 5/5=2,38=5/2;
 7//1,2,3,16;
 1/18=20,19=15,26=3/3(-5);
 2/9=110/2;
 6/7=2,8=2,9=2,10=2,19=2,28=1/1;
 99/9=1/99;
 -----
 Title
 -----
 Symbolic Z-matrix:
 Charge =  0 Multiplicity = 1
 Zr                    1.37839  -0.01367  -0.01029 
 Si                   -2.16687   0.05637   0.00991 
 O                    -0.57498  -0.28442   0.01654 
 O                    -2.3296    1.53657   0.72785 
 O                    -3.00596  -1.15593   0.77664 
 O                    -2.84756   0.16844  -1.49404 
 H                    -2.56536  -1.56715   1.52839 
 H                    -3.18184  -0.65771  -1.86096 
 H                    -3.18238   1.97019   0.61256 
 O                     2.15239  -1.31312  -1.2196 
 H                     2.65751  -1.85105  -1.82887 
 O                     2.04402  -0.29207   1.78758 
 H                     2.51011  -0.3161    2.62313 
 O                     1.78195   1.7752   -0.6111 
 H                     1.91399   2.68442  -0.87911 
 
 The following ModRedundant input section has been read:
 A       1       2       3 F                                                   
 

 GradGradGradGradGradGradGradGradGradGradGradGradGradGradGradGradGradGrad
 Berny optimization.
 Initialization pass.
                           ----------------------------
                           !    Initial Parameters    !
                           ! (Angstroms and Degrees)  !
 --------------------------                            --------------------------
 ! Name  Definition              Value          Derivative Info.                !
 --------------------------------------------------------------------------------
 ! R1    R(1,3)                  1.9722         estimate D2E/DX2                !
 ! R2    R(1,10)                 1.9365         estimate D2E/DX2                !
 ! R3    R(1,12)                 1.9372         estimate D2E/DX2                !
 ! R4    R(1,14)                 1.9297         estimate D2E/DX2                !
 ! R5    R(2,3)                  1.628          estimate D2E/DX2                !
 ! R6    R(2,4)                  1.6532         estimate D2E/DX2                !
 ! R7    R(2,5)                  1.6618         estimate D2E/DX2                !
 ! R8    R(2,6)                  1.6546         estimate D2E/DX2                !
 ! R9    R(4,9)                  0.9636         estimate D2E/DX2                !
 ! R10   R(5,7)                  0.9635         estimate D2E/DX2                !
 ! R11   R(6,8)                  0.9638         estimate D2E/DX2                !
 ! R12   R(10,11)                0.9569         estimate D2E/DX2                !
 ! R13   R(12,13)                0.9571         estimate D2E/DX2                !
 ! R14   R(14,15)                0.9571         estimate D2E/DX2                !
 ! A1    A(3,1,10)             108.1944         estimate D2E/DX2                !
 ! A2    A(3,1,12)             107.9362         estimate D2E/DX2                !
 ! A3    A(3,1,14)             109.793          estimate D2E/DX2                !
 ! A4    A(10,1,12)            110.2299         estimate D2E/DX2                !
 ! A5    A(10,1,14)            110.1226         estimate D2E/DX2                !
 ! A6    A(12,1,14)            110.5061         estimate D2E/DX2                !
 ! A7    A(1,2,3)               10.9659         Frozen                          !
 ! A8    A(3,2,4)              106.3748         estimate D2E/DX2                !
 ! A9    A(3,2,5)              109.8248         estimate D2E/DX2                !
 ! A10   A(3,2,6)              114.844          estimate D2E/DX2                !
 ! A11   A(4,2,5)              113.7728         estimate D2E/DX2                !
 ! A12   A(4,2,6)              107.0735         estimate D2E/DX2                !
 ! A13   A(5,2,6)              105.1329         estimate D2E/DX2                !
 ! A14   A(1,3,2)              160.0001         estimate D2E/DX2                !
 ! A15   A(2,4,9)              115.9808         estimate D2E/DX2                !
 ! A16   A(2,5,7)              116.1314         estimate D2E/DX2                !
 ! A17   A(2,6,8)              115.5097         estimate D2E/DX2                !
 ! A18   L(1,10,11,8,-1)       187.2024         estimate D2E/DX2                !
 ! A19   L(1,12,13,7,-1)       190.5761         estimate D2E/DX2                !
 ! A20   L(1,14,15,4,-1)       175.4233         estimate D2E/DX2                !
 ! A21   L(1,10,11,8,-2)       172.728          estimate D2E/DX2                !
 ! A22   L(1,12,13,7,-2)       183.8676         estimate D2E/DX2                !
 ! A23   L(1,14,15,4,-2)       179.1544         estimate D2E/DX2                !
 ! D1    D(10,1,3,2)          -136.4117         estimate D2E/DX2                !
 ! D2    D(12,1,3,2)           104.3156         estimate D2E/DX2                !
 ! D3    D(14,1,3,2)           -16.2025         estimate D2E/DX2                !
 ! D4    D(4,2,3,1)            -29.9121         estimate D2E/DX2                !
 ! D5    D(5,2,3,1)           -153.4544         estimate D2E/DX2                !
 ! D6    D(6,2,3,1)             88.3344         estimate D2E/DX2                !
 ! D7    D(3,2,4,9)            165.9159         estimate D2E/DX2                !
 ! D8    D(5,2,4,9)            -73.0407         estimate D2E/DX2                !
 ! D9    D(6,2,4,9)             42.6621         estimate D2E/DX2                !
 ! D10   D(3,2,5,7)             35.3298         estimate D2E/DX2                !
 ! D11   D(4,2,5,7)            -83.7655         estimate D2E/DX2                !
 ! D12   D(6,2,5,7)            159.3965         estimate D2E/DX2                !
 ! D13   D(3,2,6,8)             88.623          estimate D2E/DX2                !
 ! D14   D(4,2,6,8)           -153.5245         estimate D2E/DX2                !
 ! D15   D(5,2,6,8)            -32.1987         estimate D2E/DX2                !
 --------------------------------------------------------------------------------
 Trust Radius=3.00D-01 FncErr=1.00D-07 GrdErr=1.00D-06 EigMax=2.50D+02 EigMin=1.00D-04
 Number of steps in this run=     62 maximum allowed number of steps=    100.
 GradGradGradGradGradGradGradGradGradGradGradGradGradGradGradGradGradGrad

                          Input orientation:                          
 ---------------------------------------------------------------------
 Center     Atomic      Atomic             Coordinates (Angstroms)
 Number     Number       Type             X           Y           Z
 ---------------------------------------------------------------------
      1         40           0        1.378390   -0.013670   -0.010290
      2         14           0       -2.166870    0.056370    0.009910
      3          8           0       -0.574980   -0.284420    0.016540
      4          8           0       -2.329600    1.536570    0.727850
      5          8           0       -3.005960   -1.155930    0.776640
      6          8           0       -2.847560    0.168440   -1.494040
      7          1           0       -2.565360   -1.567150    1.528390
      8          1           0       -3.181840   -0.657710   -1.860960
      9          1           0       -3.182380    1.970190    0.612560
     10          8           0        2.152390   -1.313120   -1.219600
     11          1           0        2.657510   -1.851050   -1.828870
     12          8           0        2.044020   -0.292070    1.787580
     13          1           0        2.510110   -0.316100    2.623130
     14          8           0        1.781950    1.775200   -0.611100
     15          1           0        1.913990    2.684420   -0.879110
 ---------------------------------------------------------------------
                    Distance matrix (angstroms):
                    1          2          3          4          5
     1  Zr   0.000000
     2  Si   3.546009   0.000000
     3  O    1.972227   1.627973   0.000000
     4  O    4.086231   1.653152   2.626910   0.000000
     5  O    4.598537   1.661812   2.692015   2.776581   0.000000
     6  O    4.482559   1.654619   2.766144   2.660236   2.633445
     7  H    4.509324   2.258405   2.809395   3.213958   0.963514
     8  H    4.963413   2.245045   3.234203   3.499016   2.689998
     9  H    5.012411   2.248812   3.498148   0.963614   3.135390
    10  O    1.936512   4.695019   3.166198   5.656989   5.533377
    11  H    2.884328   5.503999   4.038423   6.548592   6.272700
    12  O    1.937242   4.584007   3.161614   4.857520   5.222121
    13  H    2.882214   5.370456   4.038947   5.517904   5.877233
    14  O    1.929738   4.351231   3.192348   4.330655   5.782856
    15  H    2.884685   4.934615   3.976326   4.680591   6.457221
                    6          7          8          9         10
     6  O    0.000000
     7  H    3.496712   0.000000
     8  H    0.963793   3.562979   0.000000
     9  H    2.792162   3.705703   3.608900   0.000000
    10  O    5.222053   5.465633   5.412478   6.526615   0.000000
    11  H    5.873351   6.215317   5.960126   7.393698   0.956935
    12  O    5.908355   4.789509   6.383976   5.814959   3.177644
    13  H    6.774252   5.340784   7.254106   6.455537   3.986049
    14  O    4.979320   5.886240   5.667487   5.116633   3.169419
    15  H    5.420392   6.628460   6.172629   5.358003   4.019091
                   11         12         13         14         15
    11  H    0.000000
    12  O    3.985662   0.000000
    13  H    4.711486   0.957059   0.000000
    14  O    3.924189   3.177413   3.919693   0.000000
    15  H    4.693118   3.998454   4.650179   0.957050   0.000000
 Stoichiometry    H6O7SiZr
 Framework group  C1[X(H6O7SiZr)]
 Deg. of freedom    39
 Full point group                 C1      NOp   1
 Largest Abelian subgroup         C1      NOp   1
 Largest concise Abelian subgroup C1      NOp   1
                         Standard orientation:                         
 ---------------------------------------------------------------------
 Center     Atomic      Atomic             Coordinates (Angstroms)
 Number     Number       Type             X           Y           Z
 ---------------------------------------------------------------------
      1         40           0        1.372968   -0.016228   -0.010567
      2         14           0       -2.172938   -0.028202    0.013682
      3          8           0       -0.573635   -0.332369    0.011199
      4          8           0       -2.368744    1.430549    0.766420
      5          8           0       -2.983029   -1.277190    0.752195
      6          8           0       -2.857856    0.103573   -1.486746
      7          1           0       -2.532185   -1.695760    1.493745
      8          1           0       -3.173522   -0.721174   -1.872810
      9          1           0       -3.231398    1.847045    0.661961
     10          8           0        2.175132   -1.268705   -1.250693
     11          1           0        2.691729   -1.780385   -1.872815
     12          8           0        2.047008   -0.321511    1.779790
     13          1           0        2.514546   -0.354488    2.614225
     14          8           0        1.734605    1.795098   -0.569321
     15          1           0        1.845402    2.713171   -0.815917
 ---------------------------------------------------------------------
 Rotational constants (GHZ):           1.6336458           0.4787657           0.4763456
 General basis read from cards:  (5D, 7F)
 ======================================================================================================
                                       Pseudopotential Parameters
 ======================================================================================================
  Center     Atomic      Valence      Angular      Power
  Number     Number     Electrons     Momentum     of R      Exponent        Coefficient   SO-Coeffient
 ======================================================================================================
    1         40           12
                                      G and up 
                                                     2        1.0000000        0.00000000    0.00000000
                                      S - G
                                                     2        8.6365280      150.24299400    0.00000000
                                                     2        3.7176390       18.78003600    0.00000000
                                      P - G
                                                     2        7.6267280       33.19279100    0.00000000
                                                     2        7.4532070       66.38903900    0.00000000
                                                     2        3.3583890        4.62072600    0.00000000
                                                     2        3.2297380        9.26027000    0.00000000
                                      D - G
                                                     2        5.9380860       13.99338300    0.00000000
                                                     2        5.8255440       20.99588200    0.00000000
                                                     2        2.2050190        2.28516600    0.00000000
                                                     2        2.2062920        3.44126000    0.00000000
                                      F - G
                                                     2        4.8002150       -5.23932000    0.00000000
                                                     2        4.7989920       -6.98742400    0.00000000
    2         14
                                   No pseudopotential on this center.
    3          8
                                   No pseudopotential on this center.
    4          8
                                   No pseudopotential on this center.
    5          8
                                   No pseudopotential on this center.
    6          8
                                   No pseudopotential on this center.
    7          1
                                   No pseudopotential on this center.
    8          1
                                   No pseudopotential on this center.
    9          1
                                   No pseudopotential on this center.
   10          8
                                   No pseudopotential on this center.
   11          1
                                   No pseudopotential on this center.
   12          8
                                   No pseudopotential on this center.
   13          1
                                   No pseudopotential on this center.
   14          8
                                   No pseudopotential on this center.
   15          1
                                   No pseudopotential on this center.
 ======================================================================================================
 There are   300 symmetry adapted cartesian basis functions of A   symmetry.
 There are   266 symmetry adapted basis functions of A   symmetry.
   266 basis functions,   576 primitive gaussians,   300 cartesian basis functions
    44 alpha electrons       44 beta electrons
       nuclear repulsion energy       632.8081500423 Hartrees.
 NAtoms=   15 NActive=   15 NUniq=   15 SFac= 1.00D+00 NAtFMM=   60 NAOKFM=F Big=F
 Integral buffers will be    131072 words long.
 Raffenetti 2 integral format.
 Two-electron integral symmetry is turned on.
 Nuclear repulsion after empirical dispersion term =      632.7979097062 Hartrees.
 One-electron integrals computed using PRISM.
 PrsmSu:  requested number of processors reduced to:   4 ShMem   1 Linda.
   1 Symmetry operations used in ECPInt.
 ECPInt:  NShTT=    3321 NPrTT=   20810 LenC2=    3175 LenP2D=   15013.
 LDataN:  DoStor=T MaxTD1= 8 Len=  415
 NBasis=   266 RedAO= T EigKep=  1.03D-04  NBF=   266
 NBsUse=   266 1.00D-06 EigRej= -1.00D+00 NBFU=   266
 Defaulting to unpruned grid for atomic number  40.
 ExpMin= 1.01D-02 ExpMax= 1.61D+04 ExpMxC= 2.43D+03 IAcc=3 IRadAn=         5 AccDes= 0.00D+00
 Harris functional with IExCor=  402 and IRadAn=       5 diagonalized for initial guess.
 HarFok:  IExCor=  402 AccDes= 0.00D+00 IRadAn=         5 IDoV= 1 UseB2=F ITyADJ=14
 ICtDFT=  3500011 ScaDFX=  1.000000  1.000000  1.000000  1.000000
 Defaulting to unpruned grid for atomic number  40.
 FoFCou: FMM=F IPFlag=           0 FMFlag=      100000 FMFlg1=           0
         NFxFlg=           0 DoJE=T BraDBF=F KetDBF=T FulRan=T
         wScrn=  0.000000 ICntrl=       500 IOpCl=  0 I1Cent=   200000004 NGrid=           0
         NMat0=    1 NMatS0=      1 NMatT0=    0 NMatD0=    1 NMtDS0=    0 NMtDT0=    0
 Petite list used in FoFCou.
 Requested convergence on RMS density matrix=1.00D-08 within 128 cycles.
 Requested convergence on MAX density matrix=1.00D-06.
 Requested convergence on             energy=1.00D-06.
 No special actions if energy rises.
 Defaulting to unpruned grid for atomic number  40.
 Defaulting to unpruned grid for atomic number  40.
 Defaulting to unpruned grid for atomic number  40.
 Defaulting to unpruned grid for atomic number  40.
 Defaulting to unpruned grid for atomic number  40.
 Defaulting to unpruned grid for atomic number  40.
 Defaulting to unpruned grid for atomic number  40.
 Defaulting to unpruned grid for atomic number  40.
 Defaulting to unpruned grid for atomic number  40.
 Defaulting to unpruned grid for atomic number  40.
 Defaulting to unpruned grid for atomic number  40.
 Defaulting to unpruned grid for atomic number  40.
 Defaulting to unpruned grid for atomic number  40.
 Defaulting to unpruned grid for atomic number  40.
 Defaulting to unpruned grid for atomic number  40.
 Defaulting to unpruned grid for atomic number  40.
 SCF Done:  E(RB3LYP) =  -867.127838192     A.U. after   13 cycles
            NFock= 13  Conv=0.31D-08     -V/T= 2.0439

 **********************************************************************

            Population analysis using the SCF Density.

 **********************************************************************

 Orbital symmetries:
       Occupied  (A) (A) (A) (A) (A) (A) (A) (A) (A) (A) (A) (A)
                 (A) (A) (A) (A) (A) (A) (A) (A) (A) (A) (A) (A)
                 (A) (A) (A) (A) (A) (A) (A) (A) (A) (A) (A) (A)
                 (A) (A) (A) (A) (A) (A) (A) (A)
       Virtual   (A) (A) (A) (A) (A) (A) (A) (A) (A) (A) (A) (A)
                 (A) (A) (A) (A) (A) (A) (A) (A) (A) (A) (A) (A)
                 (A) (A) (A) (A) (A) (A) (A) (A) (A) (A) (A) (A)
                 (A) (A) (A) (A) (A) (A) (A) (A) (A) (A) (A) (A)
                 (A) (A) (A) (A) (A) (A) (A) (A) (A) (A) (A) (A)
                 (A) (A) (A) (A) (A) (A) (A) (A) (A) (A) (A) (A)
                 (A) (A) (A) (A) (A) (A) (A) (A) (A) (A) (A) (A)
                 (A) (A) (A) (A) (A) (A) (A) (A) (A) (A) (A) (A)
                 (A) (A) (A) (A) (A) (A) (A) (A) (A) (A) (A) (A)
                 (A) (A) (A) (A) (A) (A) (A) (A) (A) (A) (A) (A)
                 (A) (A) (A) (A) (A) (A) (A) (A) (A) (A) (A) (A)
                 (A) (A) (A) (A) (A) (A) (A) (A) (A) (A) (A) (A)
                 (A) (A) (A) (A) (A) (A) (A) (A) (A) (A) (A) (A)
                 (A) (A) (A) (A) (A) (A) (A) (A) (A) (A) (A) (A)
                 (A) (A) (A) (A) (A) (A) (A) (A) (A) (A) (A) (A)
                 (A) (A) (A) (A) (A) (A) (A) (A) (A) (A) (A) (A)
                 (A) (A) (A) (A) (A) (A) (A) (A) (A) (A) (A) (A)
                 (A) (A) (A) (A) (A) (A) (A) (A) (A) (A) (A) (A)
                 (A) (A) (A) (A) (A) (A)
 The electronic state is 1-A.
 Alpha  occ. eigenvalues --  -66.19954 -19.15202 -19.15166 -19.14960 -19.14376
 Alpha  occ. eigenvalues --  -19.14263 -19.14190 -19.13218  -5.34054  -3.70019
 Alpha  occ. eigenvalues --   -3.70012  -3.69975  -2.11194  -1.27504  -1.27397
 Alpha  occ. eigenvalues --   -1.27092  -1.02808  -0.99627  -0.99439  -0.96607
 Alpha  occ. eigenvalues --   -0.95402  -0.95338  -0.94127  -0.57475  -0.52290
 Alpha  occ. eigenvalues --   -0.51606  -0.50333  -0.49652  -0.49595  -0.45634
 Alpha  occ. eigenvalues --   -0.39602  -0.37751  -0.37295  -0.36051  -0.35623
 Alpha  occ. eigenvalues --   -0.34679  -0.34235  -0.33945  -0.32907  -0.32763
 Alpha  occ. eigenvalues --   -0.32039  -0.31271  -0.31205  -0.30696
 Alpha virt. eigenvalues --   -0.02908  -0.01295  -0.00699  -0.00550   0.00309
 Alpha virt. eigenvalues --    0.00398   0.01056   0.01239   0.01773   0.02377
 Alpha virt. eigenvalues --    0.02402   0.02982   0.03194   0.03304   0.03379
 Alpha virt. eigenvalues --    0.04273   0.04525   0.04633   0.05343   0.05752
 Alpha virt. eigenvalues --    0.06756   0.09115   0.09592   0.09848   0.10048
 Alpha virt. eigenvalues --    0.10185   0.11333   0.12464   0.13305   0.13816
 Alpha virt. eigenvalues --    0.14729   0.15477   0.16010   0.16409   0.17967
 Alpha virt. eigenvalues --    0.18211   0.18329   0.19093   0.19508   0.19920
 Alpha virt. eigenvalues --    0.20213   0.20366   0.21345   0.21739   0.22488
 Alpha virt. eigenvalues --    0.23450   0.24333   0.25124   0.26215   0.26580
 Alpha virt. eigenvalues --    0.27152   0.27416   0.27867   0.28417   0.28558
 Alpha virt. eigenvalues --    0.29079   0.29513   0.29685   0.29859   0.30807
 Alpha virt. eigenvalues --    0.31217   0.32968   0.34182   0.34620   0.35459
 Alpha virt. eigenvalues --    0.35693   0.36434   0.36876   0.37902   0.39128
 Alpha virt. eigenvalues --    0.41852   0.44072   0.44295   0.46648   0.47797
 Alpha virt. eigenvalues --    0.48487   0.49335   0.50467   0.51804   0.52846
 Alpha virt. eigenvalues --    0.55057   0.57092   0.58216   0.59999   0.60698
 Alpha virt. eigenvalues --    0.61617   0.62425   0.62603   0.64742   0.65472
 Alpha virt. eigenvalues --    0.66743   0.68022   0.69488   0.72596   0.73890
 Alpha virt. eigenvalues --    0.74428   0.75941   0.77416   0.78807   0.81070
 Alpha virt. eigenvalues --    0.85768   0.85921   0.96143   0.97774   0.98761
 Alpha virt. eigenvalues --    1.01770   1.02522   1.04491   1.05743   1.06573
 Alpha virt. eigenvalues --    1.07815   1.18694   1.19823   1.20584   1.21293
 Alpha virt. eigenvalues --    1.21563   1.22866   1.23521   1.23967   1.24297
 Alpha virt. eigenvalues --    1.25631   1.26580   1.28079   1.28660   1.28946
 Alpha virt. eigenvalues --    1.29345   1.30517   1.31254   1.31543   1.33022
 Alpha virt. eigenvalues --    1.33537   1.36714   1.42864   1.43439   1.45715
 Alpha virt. eigenvalues --    1.48805   1.52697   1.57039   1.59733   1.61051
 Alpha virt. eigenvalues --    1.62178   1.63169   1.63688   1.64649   1.67626
 Alpha virt. eigenvalues --    1.69768   1.71103   1.72312   1.72949   1.73157
 Alpha virt. eigenvalues --    1.73810   1.74040   1.75128   1.76748   1.77376
 Alpha virt. eigenvalues --    1.79460   1.80516   1.83138   1.83390   1.84516
 Alpha virt. eigenvalues --    1.86502   1.87629   1.91011   1.91212   1.92245
 Alpha virt. eigenvalues --    1.93176   1.94193   1.95271   1.95980   1.97232
 Alpha virt. eigenvalues --    1.99007   1.99760   2.00515   2.02059   2.07015
 Alpha virt. eigenvalues --    2.08126   2.08765   2.09941   2.14120   2.17415
 Alpha virt. eigenvalues --    2.19803   2.20785   2.21585   2.26295   2.31801
 Alpha virt. eigenvalues --    2.38569   2.41967   2.42471   2.43480   2.45292
 Alpha virt. eigenvalues --    2.50674   2.58435   2.60241   2.62466   2.63402
 Alpha virt. eigenvalues --    2.64972   2.67282   2.68469   2.68591   2.73086
 Alpha virt. eigenvalues --    2.78794   2.80457   2.81143   2.83781   2.87720
 Alpha virt. eigenvalues --    2.90285   2.91343   2.91520   2.92687   2.94073
 Alpha virt. eigenvalues --    3.00759   3.15149   3.46590   3.48453   3.51116
 Alpha virt. eigenvalues --    3.54806   3.58652   3.82149   4.13398   4.14825
 Alpha virt. eigenvalues --    4.18616  30.97596
          Condensed to atoms (all electrons):
               1          2          3          4          5          6
     1  Zr  10.450125   0.144265  -0.032693   0.006846  -0.081308  -0.041181
     2  Si   0.144265  12.945979  -0.706970  -0.072853  -0.149069   0.013191
     3  O   -0.032693  -0.706970   8.952871   0.106420   0.290608   0.097381
     4  O    0.006846  -0.072853   0.106420   8.565874  -0.030589   0.030472
     5  O   -0.081308  -0.149069   0.290608  -0.030589   8.541983   0.020791
     6  O   -0.041181   0.013191   0.097381   0.030472   0.020791   8.523696
     7  H   -0.003932   0.029576  -0.001806  -0.006424   0.241291   0.006607
     8  H    0.001473   0.059878  -0.021337   0.006455  -0.005296   0.233193
     9  H   -0.004998   0.035905   0.010715   0.224940  -0.005593  -0.005453
    10  O    0.029125  -0.012032  -0.025533   0.000621   0.001029   0.000923
    11  H   -0.087423   0.000667  -0.001103   0.000001   0.000002   0.000005
    12  O    0.033777  -0.012530  -0.026284   0.000057   0.001705   0.000210
    13  H   -0.086438   0.000742  -0.000810  -0.000001   0.000002   0.000001
    14  O    0.023587  -0.016881  -0.024921   0.003002   0.001024  -0.001008
    15  H   -0.090225   0.000988  -0.000456   0.000102   0.000003   0.000017
               7          8          9         10         11         12
     1  Zr  -0.003932   0.001473  -0.004998   0.029125  -0.087423   0.033777
     2  Si   0.029576   0.059878   0.035905  -0.012032   0.000667  -0.012530
     3  O   -0.001806  -0.021337   0.010715  -0.025533  -0.001103  -0.026284
     4  O   -0.006424   0.006455   0.224940   0.000621   0.000001   0.000057
     5  O    0.241291  -0.005296  -0.005593   0.001029   0.000002   0.001705
     6  O    0.006607   0.233193  -0.005453   0.000923   0.000005   0.000210
     7  H    0.370671   0.000055   0.000092   0.000013   0.000000  -0.000050
     8  H    0.000055   0.358579   0.000061  -0.000018   0.000000  -0.000007
     9  H    0.000092   0.000061   0.368171  -0.000001  -0.000000  -0.000013
    10  O    0.000013  -0.000018  -0.000001   8.610200   0.327575  -0.031888
    11  H    0.000000   0.000000  -0.000000   0.327575   0.382240  -0.000821
    12  O   -0.000050  -0.000007  -0.000013  -0.031888  -0.000821   8.605395
    13  H   -0.000000  -0.000000  -0.000000  -0.000746  -0.000008   0.325840
    14  O   -0.000005   0.000013  -0.000074  -0.035491  -0.001354  -0.037477
    15  H    0.000000  -0.000000  -0.000000  -0.000689  -0.000008  -0.000957
              13         14         15
     1  Zr  -0.086438   0.023587  -0.090225
     2  Si   0.000742  -0.016881   0.000988
     3  O   -0.000810  -0.024921  -0.000456
     4  O   -0.000001   0.003002   0.000102
     5  O    0.000002   0.001024   0.000003
     6  O    0.000001  -0.001008   0.000017
     7  H   -0.000000  -0.000005   0.000000
     8  H   -0.000000   0.000013  -0.000000
     9  H   -0.000000  -0.000074  -0.000000
    10  O   -0.000746  -0.035491  -0.000689
    11  H   -0.000008  -0.001354  -0.000008
    12  O    0.325840  -0.037477  -0.000957
    13  H    0.382274  -0.001510  -0.000011
    14  O   -0.001510   8.609741   0.331711
    15  H   -0.000011   0.331711   0.378834
 Mulliken charges:
               1
     1  Zr   1.738999
     2  Si   1.739145
     3  O   -0.616082
     4  O   -0.834923
     5  O   -0.826584
     6  O   -0.878845
     7  H    0.363912
     8  H    0.366950
     9  H    0.376248
    10  O   -0.863089
    11  H    0.380227
    12  O   -0.856957
    13  H    0.380664
    14  O   -0.850358
    15  H    0.380692
 Sum of Mulliken charges =  -0.00000
 Mulliken charges with hydrogens summed into heavy atoms:
               1
     1  Zr   1.738999
     2  Si   1.739145
     3  O   -0.616082
     4  O   -0.458675
     5  O   -0.462672
     6  O   -0.511895
    10  O   -0.482862
    12  O   -0.476293
    14  O   -0.469666
 Electronic spatial extent (au):  <R**2>=           2238.0219
 Charge=              0.0000 electrons
 Dipole moment (field-independent basis, Debye):
    X=              1.7716    Y=             -0.5033    Z=              0.2780  Tot=              1.8626
 Quadrupole moment (field-independent basis, Debye-Ang):
   XX=            -68.9800   YY=            -68.1616   ZZ=            -67.9552
   XY=             -0.4404   XZ=             -0.0132   YZ=              0.5759
 Traceless Quadrupole moment (field-independent basis, Debye-Ang):
   XX=             -0.6144   YY=              0.2040   ZZ=              0.4104
   XY=             -0.4404   XZ=             -0.0132   YZ=              0.5759
 Octapole moment (field-independent basis, Debye-Ang**2):
  XXX=             51.5399  YYY=             16.2973  ZZZ=             11.7448  XYY=             18.5123
  XXY=              7.5827  XXZ=             -1.9077  XZZ=             28.4703  YZZ=            -19.4793
  YYZ=             -9.4411  XYZ=             -3.3389
 Hexadecapole moment (field-independent basis, Debye-Ang**3):
 XXXX=          -1893.7219 YYYY=           -348.3870 ZZZZ=           -348.6162 XXXY=           -100.8148
 XXXZ=             19.3113 YYYX=             11.2894 YYYZ=            -18.7533 ZZZX=             31.8484
 ZZZY=              7.9069 XXYY=           -336.4088 XXZZ=           -315.3300 YYZZ=           -115.0991
 XXYZ=             54.1419 YYXZ=            -36.6116 ZZXY=             13.5664
 N-N= 6.327979097062D+02 E-N=-3.303147963976D+03  KE= 8.306861927569D+02
 PrsmSu:  requested number of processors reduced to:   2 ShMem   1 Linda.
 PrsmSu:  requested number of processors reduced to:  10 ShMem   1 Linda.
   1 Symmetry operations used in ECPInt.
 ECPInt:  NShTT=    3321 NPrTT=   20810 LenC2=    3175 LenP2D=   15013.
 LDataN:  DoStor=T MaxTD1= 9 Len=  602
 Calling FoFJK, ICntrl=      2127 FMM=F ISym2X=0 I1Cent= 0 IOpClX= 0 NMat=1 NMatS=1 NMatT=0.
 CoulSu:  requested number of processors reduced to:  10 ShMem   1 Linda.
 Defaulting to unpruned grid for atomic number  40.
 Defaulting to unpruned grid for atomic number  40.
 Defaulting to unpruned grid for atomic number  40.
 Defaulting to unpruned grid for atomic number  40.
 Defaulting to unpruned grid for atomic number  40.
 Defaulting to unpruned grid for atomic number  40.
 Defaulting to unpruned grid for atomic number  40.
 Defaulting to unpruned grid for atomic number  40.
 Defaulting to unpruned grid for atomic number  40.
 Defaulting to unpruned grid for atomic number  40.
 Defaulting to unpruned grid for atomic number  40.
 Defaulting to unpruned grid for atomic number  40.
 Defaulting to unpruned grid for atomic number  40.
 Defaulting to unpruned grid for atomic number  40.
 Defaulting to unpruned grid for atomic number  40.
 Defaulting to unpruned grid for atomic number  40.
 ***** Axes restored to original set *****
 -------------------------------------------------------------------
 Center     Atomic                   Forces (Hartrees/Bohr)
 Number     Number              X              Y              Z
 -------------------------------------------------------------------
      1       40           0.000611897    0.000059835    0.000038421
      2       14          -0.000220526   -0.000419896   -0.000003052
      3        8          -0.000354292    0.000219990   -0.000042014
      4        8          -0.000006101    0.000130436    0.000018367
      5        8           0.000027625    0.000082988   -0.000022930
      6        8          -0.000009296    0.000052082    0.000000129
      7        1           0.000018864   -0.000016759   -0.000015131
      8        1           0.000006725   -0.000001921   -0.000000829
      9        1          -0.000003489    0.000019318    0.000023969
     10        8          -0.000018117   -0.000031521   -0.000032661
     11        1          -0.000003435    0.000001190    0.000007168
     12        8           0.000007603    0.000012939    0.000022297
     13        1          -0.000004922   -0.000004208   -0.000006237
     14        8          -0.000048078   -0.000105283   -0.000007570
     15        1          -0.000004458    0.000000812    0.000020072
 -------------------------------------------------------------------
 Cartesian Forces:  Max     0.000611897 RMS     0.000135604

 GradGradGradGradGradGradGradGradGradGradGradGradGradGradGradGradGradGrad
 Berny optimization.
 FormGI is forming the generalized inverse of G from B-inverse, IUseBI=4.
 Internal  Forces:  Max     0.000530498 RMS     0.000105280
 Search for a local minimum.
 Step number   1 out of a maximum of   62
 All quantities printed in internal units (Hartrees-Bohrs-Radians)
 Mixed Optimization -- En-DIIS/RFO-DIIS
 Second derivative matrix not updated -- first step.
 ITU=  0
     Eigenvalues ---    0.00230   0.01596   0.01596   0.01597   0.01597
     Eigenvalues ---    0.01598   0.01598   0.03522   0.03617   0.03636
     Eigenvalues ---    0.03969   0.11780   0.12039   0.12694   0.15564
     Eigenvalues ---    0.15873   0.16000   0.16000   0.16000   0.19501
     Eigenvalues ---    0.20181   0.21252   0.21482   0.21527   0.21945
     Eigenvalues ---    0.25000   0.25000   0.25000   0.40909   0.41957
     Eigenvalues ---    0.42175   0.46112   0.54665   0.54703   0.54724
     Eigenvalues ---    0.56111   0.56113   0.561381000.000001000.00000
     Eigenvalues --- 1000.000001000.000001000.000001000.000001000.00000
     Eigenvalues --- 1000.000001000.000001000.000001000.000001000.00000
     Eigenvalues --- 1000.000001000.00000
 RFO step:  Lambda=-3.32127043D-06 EMin= 2.30000000D-03
 Linear search not attempted -- first point.
 Iteration  1 RMS(Cart)=  0.01332137 RMS(Int)=  0.00003250
 Iteration  2 RMS(Cart)=  0.00005227 RMS(Int)=  0.00000002
 Iteration  3 RMS(Cart)=  0.00000000 RMS(Int)=  0.00000002
 Iteration  1 RMS(Cart)=  0.00000001 RMS(Int)=  0.00000000
 Variable       Old X    -DE/DX   Delta X   Delta X   Delta X     New X
                                 (Linear)    (Quad)   (Total)
    R1        3.72697   0.00053   0.00000   0.00280   0.00280   3.72977
    R2        3.65948   0.00003   0.00000   0.00013   0.00013   3.65960
    R3        3.66086   0.00001   0.00000   0.00007   0.00007   3.66093
    R4        3.64668  -0.00011   0.00000  -0.00051  -0.00051   3.64617
    R5        3.07642   0.00014   0.00000   0.00027   0.00027   3.07669
    R6        3.12400   0.00015   0.00000   0.00036   0.00036   3.12437
    R7        3.14037  -0.00009   0.00000  -0.00022  -0.00022   3.14015
    R8        3.12678   0.00001   0.00000   0.00001   0.00001   3.12679
    R9        1.82097   0.00001   0.00000   0.00002   0.00002   1.82098
   R10        1.82078   0.00000   0.00000   0.00001   0.00001   1.82078
   R11        1.82131   0.00000   0.00000   0.00000   0.00000   1.82131
   R12        1.80835  -0.00001   0.00000  -0.00001  -0.00001   1.80833
   R13        1.80858  -0.00001   0.00000  -0.00001  -0.00001   1.80857
   R14        1.80856  -0.00001   0.00000  -0.00001  -0.00001   1.80855
    A1        1.88835  -0.00008   0.00000  -0.00034  -0.00034   1.88801
    A2        1.88384   0.00003   0.00000   0.00015   0.00015   1.88400
    A3        1.91625  -0.00008   0.00000  -0.00033  -0.00033   1.91591
    A4        1.92387   0.00005   0.00000   0.00022   0.00022   1.92410
    A5        1.92200   0.00005   0.00000   0.00012   0.00012   1.92212
    A6        1.92870   0.00004   0.00000   0.00017   0.00017   1.92886
    A7        0.19139  -0.00020   0.00000   0.00000  -0.00000   0.19139
    A8        1.85659  -0.00004   0.00000  -0.00028  -0.00028   1.85631
    A9        1.91680  -0.00001   0.00000   0.00003   0.00003   1.91683
   A10        2.00441   0.00003   0.00000   0.00018   0.00018   2.00459
   A11        1.98571   0.00003   0.00000   0.00012   0.00012   1.98583
   A12        1.86879  -0.00004   0.00000  -0.00025  -0.00025   1.86854
   A13        1.83492   0.00002   0.00000   0.00021   0.00021   1.83513
   A14        2.79253   0.00039   0.00000   0.00011   0.00011   2.79263
   A15        2.02425   0.00005   0.00000   0.00030   0.00030   2.02454
   A16        2.02687  -0.00001   0.00000  -0.00008  -0.00008   2.02680
   A17        2.01602  -0.00000   0.00000  -0.00003  -0.00003   2.01599
   A18        3.26730   0.00000   0.00000   0.00022   0.00022   3.26752
   A19        3.32618  -0.00000   0.00000  -0.00030  -0.00030   3.32588
   A20        3.06171  -0.00002   0.00000  -0.00104  -0.00104   3.06067
   A21        3.01467   0.00001   0.00000   0.00045   0.00045   3.01512
   A22        3.20909  -0.00000   0.00000  -0.00023  -0.00023   3.20887
   A23        3.12683  -0.00003   0.00000  -0.00183  -0.00183   3.12501
    D1       -2.38083  -0.00001   0.00000  -0.01357  -0.01357  -2.39441
    D2        1.82065  -0.00003   0.00000  -0.01373  -0.01373   1.80692
    D3       -0.28279  -0.00005   0.00000  -0.01383  -0.01383  -0.29662
    D4       -0.52206  -0.00000   0.00000  -0.00050  -0.00050  -0.52256
    D5       -2.67829  -0.00001   0.00000  -0.00049  -0.00049  -2.67877
    D6        1.54173  -0.00006   0.00000  -0.00089  -0.00089   1.54083
    D7        2.89578   0.00001   0.00000   0.00018   0.00018   2.89596
    D8       -1.27480  -0.00000   0.00000   0.00009   0.00009  -1.27471
    D9        0.74459   0.00001   0.00000   0.00026   0.00026   0.74485
   D10        0.61662  -0.00004   0.00000  -0.00064  -0.00064   0.61598
   D11       -1.46198  -0.00001   0.00000  -0.00038  -0.00038  -1.46236
   D12        2.78199   0.00001   0.00000  -0.00028  -0.00028   2.78172
   D13        1.54676   0.00002   0.00000   0.00012   0.00012   1.54689
   D14       -2.67951  -0.00003   0.00000  -0.00029  -0.00029  -2.67980
   D15       -0.56197  -0.00001   0.00000  -0.00016  -0.00016  -0.56214
         Item               Value     Threshold  Converged?
 Maximum Force            0.000546     0.000450     NO 
 RMS     Force            0.000088     0.000300     YES
 Maximum Displacement     0.034342     0.001800     NO 
 RMS     Displacement     0.013323     0.001200     NO 
 Predicted change in Energy=-1.660626D-06
 GradGradGradGradGradGradGradGradGradGradGradGradGradGradGradGradGradGrad

                          Input orientation:                          
 ---------------------------------------------------------------------
 Center     Atomic      Atomic             Coordinates (Angstroms)
 Number     Number       Type             X           Y           Z
 ---------------------------------------------------------------------
      1         40           0        1.379384   -0.013526   -0.011634
      2         14           0       -2.167506    0.056230    0.010790
      3          8           0       -0.575459   -0.284565    0.013926
      4          8           0       -2.329593    1.530409    0.741590
      5          8           0       -3.006247   -1.162515    0.767366
      6          8           0       -2.848888    0.181789   -1.491788
      7          1           0       -2.565085   -1.580465    1.515069
      8          1           0       -3.183393   -0.641039   -1.865900
      9          1           0       -3.182305    1.965336    0.630733
     10          8           0        2.154649   -1.319640   -1.213037
     11          1           0        2.660783   -1.861594   -1.817872
     12          8           0        2.042771   -0.281862    1.788633
     13          1           0        2.507105   -0.300749    2.625284
     14          8           0        1.782916    1.771859   -0.621891
     15          1           0        1.914677    2.680302   -0.892640
 ---------------------------------------------------------------------
                    Distance matrix (angstroms):
                    1          2          3          4          5
     1  Zr   0.000000
     2  Si   3.547646   0.000000
     3  O    1.973709   1.628116   0.000000
     4  O    4.087492   1.653344   2.626901   0.000000
     5  O    4.600084   1.661696   2.692061   2.776754   0.000000
     6  O    4.484115   1.654626   2.766431   2.660155   2.633570
     7  H    4.510539   2.258251   2.809163   3.214228   0.963517
     8  H    4.964978   2.245033   3.234522   3.499023   2.690242
     9  H    5.013735   2.249185   3.498307   0.963623   3.135780
    10  O    1.936578   4.698062   3.167066   5.661428   5.530056
    11  H    2.884412   5.507670   4.039278   6.554417   6.267966
    12  O    1.937279   4.582736   3.163024   4.847493   5.226004
    13  H    2.882289   5.367961   4.040007   5.504097   5.881458
    14  O    1.929469   4.353102   3.192973   4.339367   5.785902
    15  H    2.884341   4.936208   3.976566   4.691139   6.460522
                    6          7          8          9         10
     6  O    0.000000
     7  H    3.496751   0.000000
     8  H    0.963793   3.563113   0.000000
     9  H    2.792365   3.706173   3.609205   0.000000
    10  O    5.231383   5.457699   5.420462   6.532505   0.000000
    11  H    5.885425   6.204613   5.970465   7.401536   0.956928
    12  O    5.908000   4.795159   6.387285   5.804486   3.177974
    13  H    6.772724   5.347651   7.257292   6.440711   3.986863
    14  O    4.973796   5.891501   5.659845   5.124443   3.169385
    15  H    5.412310   6.634717   6.161887   5.367594   4.019923
                   11         12         13         14         15
    11  H    0.000000
    12  O    3.985520   0.000000
    13  H    4.711846   0.957052   0.000000
    14  O    3.924665   3.177408   3.919732   0.000000
    15  H    4.694843   3.997505   4.649024   0.957045   0.000000
 Stoichiometry    H6O7SiZr
 Framework group  C1[X(H6O7SiZr)]
 Deg. of freedom    39
 Full point group                 C1      NOp   1
 Largest Abelian subgroup         C1      NOp   1
 Largest concise Abelian subgroup C1      NOp   1
                         Standard orientation:                         
 ---------------------------------------------------------------------
 Center     Atomic      Atomic             Coordinates (Angstroms)
 Number     Number       Type             X           Y           Z
 ---------------------------------------------------------------------
      1         40           0        1.373710   -0.016230   -0.010535
      2         14           0       -2.173832   -0.028346    0.013864
      3          8           0       -0.574364   -0.332430    0.012922
      4          8           0       -2.369359    1.434107    0.759883
      5          8           0       -2.983864   -1.273797    0.758131
      6          8           0       -2.858811    0.096969   -1.487098
      7          1           0       -2.532761   -1.689164    1.501329
      8          1           0       -3.174518   -0.729441   -1.869555
      9          1           0       -3.231918    1.850415    0.653818
     10          8           0        2.178108   -1.291715   -1.225615
     11          1           0        2.696220   -1.815619   -1.836185
     12          8           0        2.044160   -0.287757    1.786635
     13          1           0        2.509300   -0.304570    2.622882
     14          8           0        1.735698    1.784159   -0.602494
     15          1           0        1.846364    2.698134   -0.863908
 ---------------------------------------------------------------------
 Rotational constants (GHZ):           1.6335610           0.4784834           0.4760673
 Basis read from rwf:  (5D, 7F)
 Pseudo-potential data read from rwf file.
 There are   300 symmetry adapted cartesian basis functions of A   symmetry.
 There are   266 symmetry adapted basis functions of A   symmetry.
   266 basis functions,   576 primitive gaussians,   300 cartesian basis functions
    44 alpha electrons       44 beta electrons
       nuclear repulsion energy       632.7190691330 Hartrees.
 NAtoms=   15 NActive=   15 NUniq=   15 SFac= 1.00D+00 NAtFMM=   60 NAOKFM=F Big=F
 Integral buffers will be    131072 words long.
 Raffenetti 2 integral format.
 Two-electron integral symmetry is turned on.
 Nuclear repulsion after empirical dispersion term =      632.7088312856 Hartrees.
 One-electron integrals computed using PRISM.
 PrsmSu:  requested number of processors reduced to:   4 ShMem   1 Linda.
   1 Symmetry operations used in ECPInt.
 ECPInt:  NShTT=    3321 NPrTT=   20810 LenC2=    3175 LenP2D=   15012.
 LDataN:  DoStor=T MaxTD1= 8 Len=  415
 NBasis=   266 RedAO= T EigKep=  1.03D-04  NBF=   266
 NBsUse=   266 1.00D-06 EigRej= -1.00D+00 NBFU=   266
 Defaulting to unpruned grid for atomic number  40.
 Initial guess from the checkpoint file:  "/localscratch/sarashs.35132330.0/Gau-9548.chk"
 B after Tr=     0.000000    0.000000   -0.000000
         Rot=    0.999979    0.006502    0.000174   -0.000015 Ang=   0.75 deg.
 ExpMin= 1.01D-02 ExpMax= 1.61D+04 ExpMxC= 2.43D+03 IAcc=3 IRadAn=         5 AccDes= 0.00D+00
 Harris functional with IExCor=  402 and IRadAn=       5 diagonalized for initial guess.
 HarFok:  IExCor=  402 AccDes= 0.00D+00 IRadAn=         5 IDoV= 1 UseB2=F ITyADJ=14
 ICtDFT=  3500011 ScaDFX=  1.000000  1.000000  1.000000  1.000000
 Defaulting to unpruned grid for atomic number  40.
 FoFCou: FMM=F IPFlag=           0 FMFlag=      100000 FMFlg1=           0
         NFxFlg=           0 DoJE=T BraDBF=F KetDBF=T FulRan=T
         wScrn=  0.000000 ICntrl=       500 IOpCl=  0 I1Cent=   200000004 NGrid=           0
         NMat0=    1 NMatS0=      1 NMatT0=    0 NMatD0=    1 NMtDS0=    0 NMtDT0=    0
 Petite list used in FoFCou.
 Requested convergence on RMS density matrix=1.00D-08 within 128 cycles.
 Requested convergence on MAX density matrix=1.00D-06.
 Requested convergence on             energy=1.00D-06.
 No special actions if energy rises.
 Defaulting to unpruned grid for atomic number  40.
 Defaulting to unpruned grid for atomic number  40.
 Defaulting to unpruned grid for atomic number  40.
 Defaulting to unpruned grid for atomic number  40.
 Defaulting to unpruned grid for atomic number  40.
 Defaulting to unpruned grid for atomic number  40.
 Defaulting to unpruned grid for atomic number  40.
 Defaulting to unpruned grid for atomic number  40.
 Defaulting to unpruned grid for atomic number  40.
 Defaulting to unpruned grid for atomic number  40.
 Defaulting to unpruned grid for atomic number  40.
 Defaulting to unpruned grid for atomic number  40.
 Defaulting to unpruned grid for atomic number  40.
 Defaulting to unpruned grid for atomic number  40.
 Defaulting to unpruned grid for atomic number  40.
 Defaulting to unpruned grid for atomic number  40.
 SCF Done:  E(RB3LYP) =  -867.127839746     A.U. after    8 cycles
            NFock=  8  Conv=0.96D-08     -V/T= 2.0439
 PrsmSu:  requested number of processors reduced to:   2 ShMem   1 Linda.
 PrsmSu:  requested number of processors reduced to:  10 ShMem   1 Linda.
   1 Symmetry operations used in ECPInt.
 ECPInt:  NShTT=    3321 NPrTT=   20810 LenC2=    3175 LenP2D=   15012.
 LDataN:  DoStor=T MaxTD1= 9 Len=  602
 Calling FoFJK, ICntrl=      2127 FMM=F ISym2X=0 I1Cent= 0 IOpClX= 0 NMat=1 NMatS=1 NMatT=0.
 CoulSu:  requested number of processors reduced to:  10 ShMem   1 Linda.
 Defaulting to unpruned grid for atomic number  40.
 Defaulting to unpruned grid for atomic number  40.
 Defaulting to unpruned grid for atomic number  40.
 Defaulting to unpruned grid for atomic number  40.
 Defaulting to unpruned grid for atomic number  40.
 Defaulting to unpruned grid for atomic number  40.
 Defaulting to unpruned grid for atomic number  40.
 Defaulting to unpruned grid for atomic number  40.
 Defaulting to unpruned grid for atomic number  40.
 Defaulting to unpruned grid for atomic number  40.
 Defaulting to unpruned grid for atomic number  40.
 Defaulting to unpruned grid for atomic number  40.
 Defaulting to unpruned grid for atomic number  40.
 Defaulting to unpruned grid for atomic number  40.
 Defaulting to unpruned grid for atomic number  40.
 Defaulting to unpruned grid for atomic number  40.
 ***** Axes restored to original set *****
 -------------------------------------------------------------------
 Center     Atomic                   Forces (Hartrees/Bohr)
 Number     Number              X              Y              Z
 -------------------------------------------------------------------
      1       40          -0.000042970   -0.000153660    0.000124574
      2       14           0.000012232   -0.000260828    0.000022458
      3        8           0.000102094    0.000281864   -0.000058445
      4        8          -0.000016389    0.000066450    0.000000530
      5        8          -0.000014828    0.000036390    0.000003211
      6        8          -0.000021164    0.000026219   -0.000006423
      7        1           0.000016099   -0.000012663   -0.000021324
      8        1           0.000004845   -0.000001812   -0.000003402
      9        1           0.000004425   -0.000001918    0.000015787
     10        8          -0.000029383    0.000016153    0.000012783
     11        1           0.000004742    0.000000562    0.000001034
     12        8           0.000000621    0.000019600   -0.000081841
     13        1          -0.000004605   -0.000002152    0.000006511
     14        8          -0.000021315   -0.000026280   -0.000024393
     15        1           0.000005596    0.000012075    0.000008940
 -------------------------------------------------------------------
 Cartesian Forces:  Max     0.000281864 RMS     0.000070239

 GradGradGradGradGradGradGradGradGradGradGradGradGradGradGradGradGradGrad
 Berny optimization.
 Using GEDIIS/GDIIS optimizer.
 FormGI is forming the generalized inverse of G from B-inverse, IUseBI=4.
 Internal  Forces:  Max     0.000325377 RMS     0.000058404
 Search for a local minimum.
 Step number   2 out of a maximum of   62
 All quantities printed in internal units (Hartrees-Bohrs-Radians)
 Mixed Optimization -- En-DIIS/RFO-DIIS
 Swapping is turned off.
 Update second derivatives using D2CorX and points    1    2
 DE= -1.55D-06 DEPred=-1.66D-06 R= 9.36D-01
 TightC=F SS=  1.41D+00  RLast= 2.41D-02 DXNew= 5.0454D-01 7.2259D-02
 Trust test= 9.36D-01 RLast= 2.41D-02 DXMaxT set to 3.00D-01
 ITU=  1  0
     Eigenvalues ---    0.00121   0.01562   0.01596   0.01596   0.01598
     Eigenvalues ---    0.01598   0.01608   0.03486   0.03615   0.03632
     Eigenvalues ---    0.03915   0.11720   0.12014   0.12702   0.15441
     Eigenvalues ---    0.15845   0.15977   0.16000   0.16003   0.20047
     Eigenvalues ---    0.21060   0.21253   0.21518   0.21865   0.24471
     Eigenvalues ---    0.24831   0.25000   0.29037   0.40815   0.41825
     Eigenvalues ---    0.41995   0.47143   0.54666   0.54713   0.54730
     Eigenvalues ---    0.56111   0.56128   0.561451000.000001000.00000
     Eigenvalues --- 1000.000001000.000001000.000001000.000001000.00000
     Eigenvalues --- 1000.000001000.000001000.000001000.000001000.00000
     Eigenvalues --- 1000.000001000.00000
 En-DIIS/RFO-DIIS/Sim-DIIS IScMMF=       -3 using points:     2    1
 RFO step:  Lambda=-1.93969290D-06.
 DidBck=F Rises=F RFO-DIIS coefs:    2.55821   -1.55821
 Iteration  1 RMS(Cart)=  0.02105966 RMS(Int)=  0.00008110
 Iteration  2 RMS(Cart)=  0.00013030 RMS(Int)=  0.00000007
 Iteration  3 RMS(Cart)=  0.00000000 RMS(Int)=  0.00000007
 Iteration  1 RMS(Cart)=  0.00000008 RMS(Int)=  0.00000003
 Variable       Old X    -DE/DX   Delta X   Delta X   Delta X     New X
                                 (Linear)    (Quad)   (Total)
    R1        3.72977  -0.00010   0.00436  -0.00370   0.00066   3.73043
    R2        3.65960  -0.00003   0.00020  -0.00034  -0.00014   3.65946
    R3        3.66093  -0.00007   0.00011  -0.00056  -0.00045   3.66048
    R4        3.64617  -0.00001  -0.00079   0.00048  -0.00031   3.64586
    R5        3.07669  -0.00002   0.00042  -0.00042   0.00001   3.07670
    R6        3.12437   0.00007   0.00056  -0.00018   0.00039   3.12475
    R7        3.14015  -0.00003  -0.00034   0.00015  -0.00019   3.13996
    R8        3.12679   0.00002   0.00002   0.00005   0.00007   3.12686
    R9        1.82098  -0.00001   0.00003  -0.00003  -0.00001   1.82098
   R10        1.82078  -0.00000   0.00001  -0.00002  -0.00001   1.82078
   R11        1.82131   0.00000   0.00000   0.00000   0.00001   1.82131
   R12        1.80833   0.00000  -0.00002   0.00002  -0.00000   1.80833
   R13        1.80857   0.00000  -0.00002   0.00002   0.00000   1.80857
   R14        1.80855   0.00001  -0.00001   0.00003   0.00002   1.80857
    A1        1.88801  -0.00004  -0.00053   0.00013  -0.00040   1.88761
    A2        1.88400   0.00007   0.00024   0.00028   0.00052   1.88452
    A3        1.91591  -0.00004  -0.00052   0.00012  -0.00040   1.91551
    A4        1.92410   0.00000   0.00035  -0.00019   0.00015   1.92425
    A5        1.92212   0.00000   0.00019  -0.00022  -0.00004   1.92208
    A6        1.92886   0.00000   0.00026  -0.00010   0.00016   1.92902
    A7        0.19139  -0.00018  -0.00000   0.00000  -0.00000   0.19139
    A8        1.85631  -0.00001  -0.00044   0.00021  -0.00023   1.85607
    A9        1.91683  -0.00000   0.00004   0.00003   0.00007   1.91690
   A10        2.00459   0.00002   0.00028   0.00000   0.00029   2.00488
   A11        1.98583   0.00001   0.00019  -0.00008   0.00011   1.98594
   A12        1.86854  -0.00002  -0.00038   0.00005  -0.00034   1.86821
   A13        1.83513  -0.00000   0.00033  -0.00021   0.00012   1.83524
   A14        2.79263   0.00033   0.00016  -0.00014   0.00003   2.79266
   A15        2.02454   0.00001   0.00046  -0.00020   0.00026   2.02481
   A16        2.02680  -0.00001  -0.00012  -0.00004  -0.00016   2.02663
   A17        2.01599   0.00000  -0.00005   0.00004  -0.00001   2.01598
   A18        3.26752   0.00001   0.00035   0.00064   0.00099   3.26851
   A19        3.32588  -0.00001  -0.00047  -0.00091  -0.00138   3.32450
   A20        3.06067   0.00000  -0.00162   0.00128  -0.00035   3.06033
   A21        3.01512   0.00000   0.00070  -0.00041   0.00029   3.01541
   A22        3.20887   0.00000  -0.00035   0.00051   0.00015   3.20902
   A23        3.12501  -0.00002  -0.00285   0.00016  -0.00269   3.12231
    D1       -2.39441  -0.00000  -0.02115  -0.00027  -0.02142  -2.41583
    D2        1.80692  -0.00002  -0.02140  -0.00027  -0.02167   1.78525
    D3       -0.29662  -0.00005  -0.02155  -0.00039  -0.02194  -0.31856
    D4       -0.52256  -0.00001  -0.00078  -0.00002  -0.00080  -0.52337
    D5       -2.67877  -0.00002  -0.00076  -0.00007  -0.00083  -2.67960
    D6        1.54083  -0.00003  -0.00139   0.00018  -0.00121   1.53962
    D7        2.89596   0.00001   0.00028   0.00005   0.00033   2.89629
    D8       -1.27471   0.00001   0.00014   0.00018   0.00032  -1.27439
    D9        0.74485  -0.00000   0.00040  -0.00009   0.00031   0.74516
   D10        0.61598  -0.00003  -0.00100  -0.00002  -0.00102   0.61496
   D11       -1.46236  -0.00002  -0.00059  -0.00025  -0.00084  -1.46320
   D12        2.78172   0.00000  -0.00043  -0.00013  -0.00056   2.78116
   D13        1.54689   0.00001   0.00019  -0.00016   0.00004   1.54692
   D14       -2.67980  -0.00001  -0.00045   0.00014  -0.00032  -2.68011
   D15       -0.56214  -0.00001  -0.00025  -0.00005  -0.00030  -0.56244
         Item               Value     Threshold  Converged?
 Maximum Force            0.000087     0.000450     YES
 RMS     Force            0.000027     0.000300     YES
 Maximum Displacement     0.054130     0.001800     NO 
 RMS     Displacement     0.021063     0.001200     NO 
 Predicted change in Energy=-9.700071D-07
 GradGradGradGradGradGradGradGradGradGradGradGradGradGradGradGradGradGrad

                          Input orientation:                          
 ---------------------------------------------------------------------
 Center     Atomic      Atomic             Coordinates (Angstroms)
 Number     Number       Type             X           Y           Z
 ---------------------------------------------------------------------
      1         40           0        1.379640   -0.013464   -0.013676
      2         14           0       -2.167585    0.056119    0.012301
      3          8           0       -0.575548   -0.284739    0.009875
      4          8           0       -2.328827    1.520421    0.763328
      5          8           0       -3.005983   -1.172666    0.752618
      6          8           0       -2.850142    0.202826   -1.487864
      7          1           0       -2.563971   -1.601289    1.493743
      8          1           0       -3.184998   -0.614649   -1.873232
      9          1           0       -3.181518    1.957081    0.659377
     10          8           0        2.157058   -1.329685   -1.202470
     11          1           0        2.665450   -1.877444   -1.800138
     12          8           0        2.039926   -0.265872    1.789776
     13          1           0        2.500907   -0.276540    2.628426
     14          8           0        1.783404    1.766494   -0.638931
     15          1           0        1.915996    2.673376   -0.914503
 ---------------------------------------------------------------------
                    Distance matrix (angstroms):
                    1          2          3          4          5
     1  Zr   0.000000
     2  Si   3.548003   0.000000
     3  O    1.974058   1.628119   0.000000
     4  O    4.087697   1.653548   2.626839   0.000000
     5  O    4.600506   1.661594   2.692044   2.776937   0.000000
     6  O    4.484537   1.654660   2.766717   2.660018   2.633633
     7  H    4.510606   2.258051   2.808736   3.214635   0.963514
     8  H    4.965410   2.245060   3.234836   3.499001   2.690449
     9  H    5.014002   2.249539   3.498384   0.963619   3.136053
    10  O    1.936504   4.700922   3.166833   5.666625   5.523045
    11  H    2.884298   5.511972   4.039421   6.561985   6.259268
    12  O    1.937041   4.578891   3.163717   4.830159   5.230599
    13  H    2.882213   5.361865   4.039982   5.480327   5.886216
    14  O    1.929305   4.354285   3.192673   4.351704   5.789067
    15  H    2.884142   4.938080   3.976520   4.707754   6.465077
                    6          7          8          9         10
     6  O    0.000000
     7  H    3.496671   0.000000
     8  H    0.963796   3.563097   0.000000
     9  H    2.792466   3.706688   3.609421   0.000000
    10  O    5.244244   5.443478   5.431276   6.539855   0.000000
    11  H    5.903118   6.186498   5.985628   7.412141   0.956927
    12  O    5.905537   4.802794   6.390548   5.786432   3.177885
    13  H    6.768114   5.356814   7.260080   6.415308   3.987871
    14  O    4.963415   5.898299   5.646092   5.135404   3.169151
    15  H    5.398929   6.643983   6.144137   5.382827   4.020638
                   11         12         13         14         15
    11  H    0.000000
    12  O    3.984461   0.000000
    13  H    4.711915   0.957053   0.000000
    14  O    3.924881   3.177253   3.919747   0.000000
    15  H    4.696380   3.995955   4.647199   0.957056   0.000000
 Stoichiometry    H6O7SiZr
 Framework group  C1[X(H6O7SiZr)]
 Deg. of freedom    39
 Full point group                 C1      NOp   1
 Largest Abelian subgroup         C1      NOp   1
 Largest concise Abelian subgroup C1      NOp   1
                         Standard orientation:                         
 ---------------------------------------------------------------------
 Center     Atomic      Atomic             Coordinates (Angstroms)
 Number     Number       Type             X           Y           Z
 ---------------------------------------------------------------------
      1         40           0        1.373918   -0.016304   -0.010445
      2         14           0       -2.173979   -0.028511    0.014107
      3          8           0       -0.574489   -0.332491    0.014895
      4          8           0       -2.369340    1.437862    0.752894
      5          8           0       -2.984075   -1.270153    0.764417
      6          8           0       -2.859099    0.089913   -1.487388
      7          1           0       -2.532594   -1.682273    1.509186
      8          1           0       -3.174808   -0.738257   -1.866025
      9          1           0       -3.231850    1.853819    0.645111
     10          8           0        2.182057   -1.324036   -1.188068
     11          1           0        2.703229   -1.864845   -1.781039
     12          8           0        2.039084   -0.238392    1.795201
     13          1           0        2.499828   -0.231435    2.634020
     14          8           0        1.736708    1.767254   -0.650384
     15          1           0        1.848426    2.674638   -0.933456
 ---------------------------------------------------------------------
 Rotational constants (GHZ):           1.6336574           0.4784396           0.4760160
 Basis read from rwf:  (5D, 7F)
 Pseudo-potential data read from rwf file.
 There are   300 symmetry adapted cartesian basis functions of A   symmetry.
 There are   266 symmetry adapted basis functions of A   symmetry.
   266 basis functions,   576 primitive gaussians,   300 cartesian basis functions
    44 alpha electrons       44 beta electrons
       nuclear repulsion energy       632.7074550194 Hartrees.
 NAtoms=   15 NActive=   15 NUniq=   15 SFac= 1.00D+00 NAtFMM=   60 NAOKFM=F Big=F
 Integral buffers will be    131072 words long.
 Raffenetti 2 integral format.
 Two-electron integral symmetry is turned on.
 Nuclear repulsion after empirical dispersion term =      632.6972182158 Hartrees.
 One-electron integrals computed using PRISM.
 PrsmSu:  requested number of processors reduced to:   4 ShMem   1 Linda.
   1 Symmetry operations used in ECPInt.
 ECPInt:  NShTT=    3321 NPrTT=   20810 LenC2=    3174 LenP2D=   15010.
 LDataN:  DoStor=T MaxTD1= 8 Len=  415
 NBasis=   266 RedAO= T EigKep=  1.03D-04  NBF=   266
 NBsUse=   266 1.00D-06 EigRej= -1.00D+00 NBFU=   266
 Defaulting to unpruned grid for atomic number  40.
 Initial guess from the checkpoint file:  "/localscratch/sarashs.35132330.0/Gau-9548.chk"
 B after Tr=    -0.000000    0.000000   -0.000000
         Rot=    0.999959    0.009100    0.000277   -0.000034 Ang=   1.04 deg.
 ExpMin= 1.01D-02 ExpMax= 1.61D+04 ExpMxC= 2.43D+03 IAcc=3 IRadAn=         5 AccDes= 0.00D+00
 Harris functional with IExCor=  402 and IRadAn=       5 diagonalized for initial guess.
 HarFok:  IExCor=  402 AccDes= 0.00D+00 IRadAn=         5 IDoV= 1 UseB2=F ITyADJ=14
 ICtDFT=  3500011 ScaDFX=  1.000000  1.000000  1.000000  1.000000
 Defaulting to unpruned grid for atomic number  40.
 FoFCou: FMM=F IPFlag=           0 FMFlag=      100000 FMFlg1=           0
         NFxFlg=           0 DoJE=T BraDBF=F KetDBF=T FulRan=T
         wScrn=  0.000000 ICntrl=       500 IOpCl=  0 I1Cent=   200000004 NGrid=           0
         NMat0=    1 NMatS0=      1 NMatT0=    0 NMatD0=    1 NMtDS0=    0 NMtDT0=    0
 Petite list used in FoFCou.
 Requested convergence on RMS density matrix=1.00D-08 within 128 cycles.
 Requested convergence on MAX density matrix=1.00D-06.
 Requested convergence on             energy=1.00D-06.
 No special actions if energy rises.
 Defaulting to unpruned grid for atomic number  40.
 Defaulting to unpruned grid for atomic number  40.
 Defaulting to unpruned grid for atomic number  40.
 Defaulting to unpruned grid for atomic number  40.
 Defaulting to unpruned grid for atomic number  40.
 Defaulting to unpruned grid for atomic number  40.
 Defaulting to unpruned grid for atomic number  40.
 Defaulting to unpruned grid for atomic number  40.
 Defaulting to unpruned grid for atomic number  40.
 Defaulting to unpruned grid for atomic number  40.
 Defaulting to unpruned grid for atomic number  40.
 Defaulting to unpruned grid for atomic number  40.
 Defaulting to unpruned grid for atomic number  40.
 Defaulting to unpruned grid for atomic number  40.
 Defaulting to unpruned grid for atomic number  40.
 Defaulting to unpruned grid for atomic number  40.
 SCF Done:  E(RB3LYP) =  -867.127840579     A.U. after    9 cycles
            NFock=  9  Conv=0.47D-08     -V/T= 2.0439
 PrsmSu:  requested number of processors reduced to:   2 ShMem   1 Linda.
 PrsmSu:  requested number of processors reduced to:  10 ShMem   1 Linda.
   1 Symmetry operations used in ECPInt.
 ECPInt:  NShTT=    3321 NPrTT=   20810 LenC2=    3174 LenP2D=   15010.
 LDataN:  DoStor=T MaxTD1= 9 Len=  602
 Calling FoFJK, ICntrl=      2127 FMM=F ISym2X=0 I1Cent= 0 IOpClX= 0 NMat=1 NMatS=1 NMatT=0.
 CoulSu:  requested number of processors reduced to:  10 ShMem   1 Linda.
 Defaulting to unpruned grid for atomic number  40.
 Defaulting to unpruned grid for atomic number  40.
 Defaulting to unpruned grid for atomic number  40.
 Defaulting to unpruned grid for atomic number  40.
 Defaulting to unpruned grid for atomic number  40.
 Defaulting to unpruned grid for atomic number  40.
 Defaulting to unpruned grid for atomic number  40.
 Defaulting to unpruned grid for atomic number  40.
 Defaulting to unpruned grid for atomic number  40.
 Defaulting to unpruned grid for atomic number  40.
 Defaulting to unpruned grid for atomic number  40.
 Defaulting to unpruned grid for atomic number  40.
 Defaulting to unpruned grid for atomic number  40.
 Defaulting to unpruned grid for atomic number  40.
 Defaulting to unpruned grid for atomic number  40.
 Defaulting to unpruned grid for atomic number  40.
 ***** Axes restored to original set *****
 -------------------------------------------------------------------
 Center     Atomic                   Forces (Hartrees/Bohr)
 Number     Number              X              Y              Z
 -------------------------------------------------------------------
      1       40          -0.000269775   -0.000188876    0.000130478
      2       14           0.000049931   -0.000063456    0.000037283
      3        8           0.000193247    0.000258760   -0.000065382
      4        8           0.000004862   -0.000024622   -0.000021512
      5        8          -0.000035314   -0.000003065    0.000023040
      6        8          -0.000007172   -0.000003807   -0.000000373
      7        1           0.000009607   -0.000016577   -0.000015967
      8        1           0.000002921   -0.000000650   -0.000003916
      9        1           0.000001534   -0.000015265    0.000004359
     10        8           0.000003085   -0.000029429   -0.000018053
     11        1           0.000007905    0.000001465   -0.000000605
     12        8           0.000042652    0.000003130   -0.000035835
     13        1          -0.000013832   -0.000001004    0.000010109
     14        8           0.000000044    0.000082901   -0.000045668
     15        1           0.000010305    0.000000494    0.000002043
 -------------------------------------------------------------------
 Cartesian Forces:  Max     0.000269775 RMS     0.000075946

 GradGradGradGradGradGradGradGradGradGradGradGradGradGradGradGradGradGrad
 Berny optimization.
 Using GEDIIS/GDIIS optimizer.
 FormGI is forming the generalized inverse of G from B-inverse, IUseBI=4.
 Internal  Forces:  Max     0.000275051 RMS     0.000059286
 Search for a local minimum.
 Step number   3 out of a maximum of   62
 All quantities printed in internal units (Hartrees-Bohrs-Radians)
 Mixed Optimization -- En-DIIS/RFO-DIIS
 Swapping is turned off.
 Update second derivatives using D2CorX and points    1    2    3
 DE= -8.33D-07 DEPred=-9.70D-07 R= 8.58D-01
 Trust test= 8.58D-01 RLast= 3.78D-02 DXMaxT set to 3.00D-01
 ITU=  0  1  0
     Eigenvalues ---    0.00036   0.01533   0.01596   0.01597   0.01598
     Eigenvalues ---    0.01599   0.01679   0.03448   0.03614   0.03630
     Eigenvalues ---    0.03897   0.11790   0.12036   0.12711   0.15382
     Eigenvalues ---    0.15881   0.16000   0.16002   0.16057   0.20120
     Eigenvalues ---    0.21249   0.21382   0.21643   0.23076   0.24421
     Eigenvalues ---    0.24805   0.25002   0.35183   0.41204   0.41966
     Eigenvalues ---    0.44237   0.52136   0.54666   0.54726   0.54793
     Eigenvalues ---    0.56115   0.56128   0.561671000.000001000.00000
     Eigenvalues --- 1000.000001000.000001000.000001000.000001000.00000
     Eigenvalues --- 1000.000001000.000001000.000001000.000001000.00000
     Eigenvalues --- 1000.000001000.00000
 En-DIIS/RFO-DIIS/Sim-DIIS IScMMF=       -3 using points:     3    2    1
 RFO step:  Lambda=-3.81536295D-06.
 DidBck=F Rises=F RFO-DIIS coefs:    1.91995    0.24579   -1.16574
 Iteration  1 RMS(Cart)=  0.03492484 RMS(Int)=  0.00022292
 Iteration  2 RMS(Cart)=  0.00035832 RMS(Int)=  0.00000021
 Iteration  3 RMS(Cart)=  0.00000002 RMS(Int)=  0.00000021
 Iteration  1 RMS(Cart)=  0.00000016 RMS(Int)=  0.00000006
 Variable       Old X    -DE/DX   Delta X   Delta X   Delta X     New X
                                 (Linear)    (Quad)   (Total)
    R1        3.73043  -0.00023   0.00387  -0.00261   0.00126   3.73169
    R2        3.65946   0.00003   0.00002  -0.00003  -0.00001   3.65945
    R3        3.66048  -0.00001  -0.00033  -0.00020  -0.00053   3.65994
    R4        3.64586   0.00009  -0.00088   0.00056  -0.00032   3.64554
    R5        3.07670  -0.00006   0.00032  -0.00029   0.00003   3.07673
    R6        3.12475  -0.00004   0.00078  -0.00024   0.00054   3.12529
    R7        3.13996   0.00003  -0.00043   0.00016  -0.00027   3.13969
    R8        3.12686   0.00001   0.00008   0.00002   0.00009   3.12695
    R9        1.82098  -0.00001   0.00001  -0.00002  -0.00001   1.82096
   R10        1.82078  -0.00000   0.00000  -0.00001  -0.00000   1.82077
   R11        1.82131   0.00000   0.00001   0.00000   0.00001   1.82132
   R12        1.80833   0.00000  -0.00002   0.00001  -0.00001   1.80832
   R13        1.80857   0.00000  -0.00001   0.00001   0.00000   1.80857
   R14        1.80857   0.00000   0.00001   0.00001   0.00002   1.80859
    A1        1.88761  -0.00002  -0.00077   0.00010  -0.00066   1.88694
    A2        1.88452   0.00008   0.00066   0.00021   0.00087   1.88539
    A3        1.91551  -0.00002  -0.00076   0.00010  -0.00066   1.91485
    A4        1.92425  -0.00003   0.00040  -0.00020   0.00020   1.92445
    A5        1.92208  -0.00001   0.00011  -0.00015  -0.00004   1.92204
    A6        1.92902  -0.00000   0.00034  -0.00006   0.00028   1.92930
    A7        0.19139  -0.00015  -0.00000   0.00000  -0.00000   0.19139
    A8        1.85607  -0.00000  -0.00054   0.00016  -0.00039   1.85569
    A9        1.91690   0.00001   0.00009   0.00001   0.00011   1.91700
   A10        2.00488   0.00000   0.00048  -0.00006   0.00042   2.00529
   A11        1.98594   0.00000   0.00024  -0.00006   0.00018   1.98612
   A12        1.86821   0.00000  -0.00059   0.00011  -0.00048   1.86772
   A13        1.83524  -0.00001   0.00035  -0.00017   0.00018   1.83542
   A14        2.79266   0.00028   0.00015  -0.00010   0.00005   2.79271
   A15        2.02481  -0.00002   0.00059  -0.00022   0.00037   2.02518
   A16        2.02663   0.00000  -0.00024   0.00002  -0.00022   2.02642
   A17        2.01598   0.00000  -0.00004   0.00003  -0.00001   2.01597
   A18        3.26851   0.00001   0.00117   0.00057   0.00173   3.27024
   A19        3.32450  -0.00003  -0.00162  -0.00126  -0.00288   3.32162
   A20        3.06033   0.00002  -0.00153   0.00134  -0.00019   3.06013
   A21        3.01541  -0.00000   0.00079  -0.00037   0.00043   3.01584
   A22        3.20902   0.00001  -0.00012   0.00053   0.00040   3.20942
   A23        3.12231  -0.00001  -0.00461   0.00039  -0.00422   3.11810
    D1       -2.41583  -0.00001  -0.03553  -0.00002  -0.03555  -2.45137
    D2        1.78525  -0.00001  -0.03594   0.00004  -0.03591   1.74934
    D3       -0.31856  -0.00004  -0.03631  -0.00008  -0.03639  -0.35495
    D4       -0.52337  -0.00001  -0.00132  -0.00001  -0.00133  -0.52470
    D5       -2.67960  -0.00002  -0.00133  -0.00005  -0.00138  -2.68097
    D6        1.53962  -0.00001  -0.00216   0.00020  -0.00196   1.53767
    D7        2.89629   0.00000   0.00052   0.00002   0.00054   2.89684
    D8       -1.27439   0.00001   0.00040   0.00012   0.00052  -1.27387
    D9        0.74516  -0.00000   0.00059  -0.00006   0.00053   0.74569
   D10        0.61496  -0.00001  -0.00168   0.00001  -0.00167   0.61329
   D11       -1.46320  -0.00001  -0.00121  -0.00016  -0.00138  -1.46458
   D12        2.78116  -0.00001  -0.00084  -0.00016  -0.00100   2.78016
   D13        1.54692  -0.00000   0.00018  -0.00014   0.00004   1.54696
   D14       -2.68011  -0.00000  -0.00063   0.00010  -0.00052  -2.68064
   D15       -0.56244  -0.00000  -0.00047   0.00000  -0.00046  -0.56290
         Item               Value     Threshold  Converged?
 Maximum Force            0.000221     0.000450     YES
 RMS     Force            0.000039     0.000300     YES
 Maximum Displacement     0.089364     0.001800     NO 
 RMS     Displacement     0.034941     0.001200     NO 
 Predicted change in Energy=-1.217482D-06
 GradGradGradGradGradGradGradGradGradGradGradGradGradGradGradGradGradGrad

                          Input orientation:                          
 ---------------------------------------------------------------------
 Center     Atomic      Atomic             Coordinates (Angstroms)
 Number     Number       Type             X           Y           Z
 ---------------------------------------------------------------------
      1         40           0        1.380093   -0.013218   -0.017081
      2         14           0       -2.167784    0.055931    0.014848
      3          8           0       -0.575757   -0.284855    0.003163
      4          8           0       -2.327592    1.503180    0.799131
      5          8           0       -3.005620   -1.189059    0.727903
      6          8           0       -2.852239    0.237551   -1.480677
      7          1           0       -2.562232   -1.635199    1.457781
      8          1           0       -3.187663   -0.570723   -1.884527
      9          1           0       -3.180263    1.942442    0.706667
     10          8           0        2.161004   -1.346089   -1.184835
     11          1           0        2.673101   -1.903306   -1.770472
     12          8           0        2.035288   -0.239289    1.791412
     13          1           0        2.490220   -0.236510    2.633422
     14          8           0        1.784429    1.757528   -0.667107
     15          1           0        1.918823    2.661586   -0.950998
 ---------------------------------------------------------------------
                    Distance matrix (angstroms):
                    1          2          3          4          5
     1  Zr   0.000000
     2  Si   3.548694   0.000000
     3  O    1.974727   1.628134   0.000000
     4  O    4.088104   1.653834   2.626702   0.000000
     5  O    4.601313   1.661451   2.692037   2.777219   0.000000
     6  O    4.485268   1.654708   2.767139   2.659811   2.633737
     7  H    4.510872   2.257779   2.808100   3.215322   0.963512
     8  H    4.966142   2.245100   3.235297   3.498974   2.690776
     9  H    5.014505   2.250034   3.498460   0.963612   3.136440
    10  O    1.936496   4.705667   3.166610   5.674676   5.511554
    11  H    2.884212   5.519070   4.039831   6.573730   6.244989
    12  O    1.936758   4.572652   3.165038   4.801619   5.238689
    13  H    2.882257   5.351584   4.039903   5.440814   5.894286
    14  O    1.929135   4.356659   3.192345   4.373015   5.794220
    15  H    2.883922   4.941927   3.976791   4.736760   6.472736
                    6          7          8          9         10
     6  O    0.000000
     7  H    3.496546   0.000000
     8  H    0.963800   3.563046   0.000000
     9  H    2.792620   3.707513   3.609756   0.000000
    10  O    5.265743   5.419959   5.449680   6.551439   0.000000
    11  H    5.932674   6.156476   6.011434   7.428853   0.956924
    12  O    5.901005   4.816333   6.395436   5.756613   3.177870
    13  H    6.759616   5.372684   7.263741   6.372958   3.989816
    14  O    4.946808   5.909247   5.623572   5.154572   3.168957
    15  H    5.377688   6.659161   6.115186   5.409777   4.021789
[...]
 ! A16   A(2,5,7)              116.1313         -DE/DX =    0.0                 !
 ! A17   A(2,6,8)              115.4962         -DE/DX =    0.0                 !
 ! A18   L(1,10,11,8,-1)       188.3253         -DE/DX =    0.0                 !
 ! A19   L(1,12,13,7,-1)       189.1045         -DE/DX =    0.0                 !
 ! A20   L(1,14,15,4,-1)       176.3826         -DE/DX =    0.0                 !
 ! A21   L(1,10,11,8,-2)       173.6154         -DE/DX =    0.0                 !
 ! A22   L(1,12,13,7,-2)       185.8384         -DE/DX =    0.0                 !
 ! A23   L(1,14,15,4,-2)       179.4371         -DE/DX =    0.0                 !
 ! D1    D(10,1,3,2)          -144.2762         -DE/DX =    0.0                 !
 ! D2    D(12,1,3,2)            96.5017         -DE/DX =    0.0                 !
 ! D3    D(14,1,3,2)           -24.1268         -DE/DX =    0.0                 !
 ! D4    D(4,2,3,1)            -29.918          -DE/DX =    0.0                 !
 ! D5    D(5,2,3,1)           -153.4647         -DE/DX =    0.0                 !
 ! D6    D(6,2,3,1)             88.2784         -DE/DX =    0.0                 !
 ! D7    D(3,2,4,9)            166.0207         -DE/DX =    0.0                 !
 ! D8    D(5,2,4,9)            -72.9363         -DE/DX =    0.0                 !
 ! D9    D(6,2,4,9)             42.7695         -DE/DX =    0.0                 !
 ! D10   D(3,2,5,7)             34.8648         -DE/DX =    0.0                 !
 ! D11   D(4,2,5,7)            -84.1932         -DE/DX =    0.0                 !
 ! D12   D(6,2,5,7)            158.9883         -DE/DX =    0.0                 !
 ! D13   D(3,2,6,8)             88.7306         -DE/DX =    0.0                 !
 ! D14   D(4,2,6,8)           -153.4782         -DE/DX =    0.0                 !
 ! D15   D(5,2,6,8)            -32.1386         -DE/DX =    0.0                 !
 --------------------------------------------------------------------------------
 GradGradGradGradGradGradGradGradGradGradGradGradGradGradGradGradGradGrad

                          Input orientation:                          
 ---------------------------------------------------------------------
 Center     Atomic      Atomic             Coordinates (Angstroms)
 Number     Number       Type             X           Y           Z
 ---------------------------------------------------------------------
      1         40           0        1.379367   -0.012062   -0.025103
      2         14           0       -2.167062    0.056454    0.020214
      3          8           0       -0.575280   -0.283858   -0.011190
      4          8           0       -2.323696    1.469393    0.864600
      5          8           0       -3.003126   -1.217171    0.683578
      6          8           0       -2.856344    0.299627   -1.464263
      7          1           0       -2.556129   -1.696357    1.389899
      8          1           0       -3.194619   -0.491158   -1.899164
      9          1           0       -3.176821    1.911800    0.793905
     10          8           0        2.164844   -1.371386   -1.159455
     11          1           0        2.690693   -1.949300   -1.711923
     12          8           0        2.029114   -0.200213    1.789293
     13          1           0        2.453617   -0.157531    2.645972
     14          8           0        1.785468    1.745447   -0.710518
     15          1           0        1.933785    2.636286   -1.027214
 ---------------------------------------------------------------------
                    Distance matrix (angstroms):
                    1          2          3          4          5
     1  Zr   0.000000
     2  Si   3.547381   0.000000
     3  O    1.973503   1.628056   0.000000
     4  O    4.086436   1.653456   2.626376   0.000000
     5  O    4.600083   1.661678   2.692250   2.777052   0.000000
     6  O    4.484371   1.654665   2.766790   2.660013   2.633523
     7  H    4.508571   2.258264   2.807484   3.217442   0.963491
     8  H    4.966185   2.244942   3.235483   3.498665   2.689669
     9  H    5.013070   2.249560   3.498158   0.963610   3.135730
    10  O    1.936876   4.711237   3.163781   5.684524   5.488940
    11  H    2.884064   5.533637   4.041382   6.593180   6.220451
    12  O    1.936390   4.561076   3.167272   4.752852   5.251690
    13  H    2.882675   5.318935   4.031214   5.351905   5.894903
    14  O    1.929650   4.359950   3.190653   4.409357   5.800969
    15  H    2.885369   4.956772   3.981828   4.802785   6.492228
                    6          7          8          9         10
     6  O    0.000000
     7  H    3.495758   0.000000
     8  H    0.963799   3.560633   0.000000
     9  H    2.793051   3.709349   3.609313   0.000000
    10  O    5.300709   5.375165   5.481406   6.567215   0.000000
    11  H    5.990712   6.100363   6.066147   7.457546   0.956934
    12  O    5.890940   4.839672   6.401309   5.705538   3.175718
    13  H    6.730432   5.389181   7.257557   6.278067   4.004760
    14  O    4.919853   5.925136   5.587177   5.187993   3.171768
    15  H    5.347553   6.691305   6.069739   5.473540   4.016505
                   11         12         13         14         15
    11  H    0.000000
    12  O    3.969321   0.000000
    13  H    4.717826   0.957038   0.000000
    14  O    3.933624   3.177108   3.915836   0.000000
    15  H    4.697801   3.998441   4.644129   0.957021   0.000000
 Stoichiometry    H6O7SiZr
 Framework group  C1[X(H6O7SiZr)]
 Deg. of freedom    39
 Full point group                 C1      NOp   1
 Largest Abelian subgroup         C1      NOp   1
 Largest concise Abelian subgroup C1      NOp   1
                         Standard orientation:                         
 ---------------------------------------------------------------------
 Center     Atomic      Atomic             Coordinates (Angstroms)
 Number     Number       Type             X           Y           Z
 ---------------------------------------------------------------------
      1         40           0        1.373692   -0.016328   -0.010435
      2         14           0       -2.173579   -0.028340    0.014756
      3          8           0       -0.574145   -0.332255    0.018462
      4          8           0       -2.368121    1.446418    0.736671
      5          8           0       -2.983713   -1.261206    0.779542
      6          8           0       -2.859443    0.072878   -1.487663
      7          1           0       -2.529914   -1.668639    1.525451
      8          1           0       -3.176604   -0.759438   -1.855859
      9          1           0       -3.230879    1.860975    0.625599
     10          8           0        2.197381   -1.447123   -1.023277
     11          1           0        2.739841   -2.056770   -1.523068
     12          8           0        2.016776   -0.035959    1.815945
     13          1           0        2.435037    0.088580    2.667690
     14          8           0        1.742851    1.686531   -0.839616
     15          1           0        1.872276    2.550887   -1.229524
 ---------------------------------------------------------------------
 Rotational constants (GHZ):           1.6336489           0.4786409           0.4760659

 **********************************************************************

            Population analysis using the SCF Density.

 **********************************************************************

 Orbital symmetries:
       Occupied  (A) (A) (A) (A) (A) (A) (A) (A) (A) (A) (A) (A)
                 (A) (A) (A) (A) (A) (A) (A) (A) (A) (A) (A) (A)
                 (A) (A) (A) (A) (A) (A) (A) (A) (A) (A) (A) (A)
                 (A) (A) (A) (A) (A) (A) (A) (A)
       Virtual   (A) (A) (A) (A) (A) (A) (A) (A) (A) (A) (A) (A)
                 (A) (A) (A) (A) (A) (A) (A) (A) (A) (A) (A) (A)
                 (A) (A) (A) (A) (A) (A) (A) (A) (A) (A) (A) (A)
                 (A) (A) (A) (A) (A) (A) (A) (A) (A) (A) (A) (A)
                 (A) (A) (A) (A) (A) (A) (A) (A) (A) (A) (A) (A)
                 (A) (A) (A) (A) (A) (A) (A) (A) (A) (A) (A) (A)
                 (A) (A) (A) (A) (A) (A) (A) (A) (A) (A) (A) (A)
                 (A) (A) (A) (A) (A) (A) (A) (A) (A) (A) (A) (A)
                 (A) (A) (A) (A) (A) (A) (A) (A) (A) (A) (A) (A)
                 (A) (A) (A) (A) (A) (A) (A) (A) (A) (A) (A) (A)
                 (A) (A) (A) (A) (A) (A) (A) (A) (A) (A) (A) (A)
                 (A) (A) (A) (A) (A) (A) (A) (A) (A) (A) (A) (A)
                 (A) (A) (A) (A) (A) (A) (A) (A) (A) (A) (A) (A)
                 (A) (A) (A) (A) (A) (A) (A) (A) (A) (A) (A) (A)
                 (A) (A) (A) (A) (A) (A) (A) (A) (A) (A) (A) (A)
                 (A) (A) (A) (A) (A) (A) (A) (A) (A) (A) (A) (A)
                 (A) (A) (A) (A) (A) (A) (A) (A) (A) (A) (A) (A)
                 (A) (A) (A) (A) (A) (A) (A) (A) (A) (A) (A) (A)
                 (A) (A) (A) (A) (A) (A)
 The electronic state is 1-A.
 Alpha  occ. eigenvalues --  -66.19944 -19.15203 -19.15157 -19.14942 -19.14392
 Alpha  occ. eigenvalues --  -19.14279 -19.14184 -19.13200  -5.34043  -3.70008
 Alpha  occ. eigenvalues --   -3.70002  -3.69964  -2.11204  -1.27518  -1.27406
 Alpha  occ. eigenvalues --   -1.27092  -1.02796  -0.99618  -0.99427  -0.96615
 Alpha  occ. eigenvalues --   -0.95416  -0.95339  -0.94109  -0.57466  -0.52283
 Alpha  occ. eigenvalues --   -0.51589  -0.50353  -0.49648  -0.49616  -0.45619
 Alpha  occ. eigenvalues --   -0.39581  -0.37756  -0.37272  -0.36037  -0.35626
 Alpha  occ. eigenvalues --   -0.34696  -0.34228  -0.33912  -0.32929  -0.32734
 Alpha  occ. eigenvalues --   -0.32058  -0.31279  -0.31195  -0.30690
 Alpha virt. eigenvalues --   -0.02909  -0.01293  -0.00683  -0.00543   0.00306
 Alpha virt. eigenvalues --    0.00403   0.00983   0.01203   0.01775   0.02423
 Alpha virt. eigenvalues --    0.02457   0.02968   0.03146   0.03285   0.03370
 Alpha virt. eigenvalues --    0.04268   0.04545   0.04612   0.05375   0.05749
 Alpha virt. eigenvalues --    0.06759   0.09117   0.09600   0.09839   0.10038
 Alpha virt. eigenvalues --    0.10213   0.11337   0.12476   0.13287   0.13843
 Alpha virt. eigenvalues --    0.14648   0.15607   0.16084   0.16330   0.18037
 Alpha virt. eigenvalues --    0.18184   0.18351   0.19105   0.19569   0.19718
 Alpha virt. eigenvalues --    0.20101   0.20289   0.21347   0.21854   0.22301
 Alpha virt. eigenvalues --    0.23767   0.24485   0.25151   0.26254   0.26476
 Alpha virt. eigenvalues --    0.27087   0.27202   0.27917   0.28267   0.28531
 Alpha virt. eigenvalues --    0.29299   0.29356   0.29606   0.29836   0.30784
 Alpha virt. eigenvalues --    0.31289   0.32871   0.33920   0.34760   0.35618
 Alpha virt. eigenvalues --    0.35757   0.36016   0.37263   0.38286   0.39304
 Alpha virt. eigenvalues --    0.41536   0.44124   0.44280   0.46507   0.47771
 Alpha virt. eigenvalues --    0.48393   0.49081   0.50247   0.52334   0.52911
 Alpha virt. eigenvalues --    0.55176   0.57109   0.58072   0.60184   0.60707
 Alpha virt. eigenvalues --    0.61621   0.62354   0.62518   0.64647   0.65499
 Alpha virt. eigenvalues --    0.66989   0.67811   0.69438   0.72671   0.73690
 Alpha virt. eigenvalues --    0.74289   0.76052   0.77542   0.78825   0.81541
 Alpha virt. eigenvalues --    0.85649   0.86101   0.96137   0.97748   0.98655
 Alpha virt. eigenvalues --    1.01752   1.02492   1.04437   1.05821   1.06743
 Alpha virt. eigenvalues --    1.07803   1.18703   1.19894   1.20790   1.21311
 Alpha virt. eigenvalues --    1.21506   1.22750   1.23451   1.24121   1.24366
 Alpha virt. eigenvalues --    1.25550   1.26573   1.27946   1.28546   1.28988
 Alpha virt. eigenvalues --    1.29087   1.30557   1.31123   1.31789   1.32847
 Alpha virt. eigenvalues --    1.33619   1.36755   1.42798   1.43257   1.45820
 Alpha virt. eigenvalues --    1.48632   1.52593   1.57539   1.59497   1.61079
 Alpha virt. eigenvalues --    1.62354   1.63272   1.63449   1.64711   1.67660
 Alpha virt. eigenvalues --    1.70035   1.71199   1.72429   1.73020   1.73197
 Alpha virt. eigenvalues --    1.73809   1.73976   1.75082   1.76628   1.77327
 Alpha virt. eigenvalues --    1.79310   1.80388   1.83097   1.83529   1.84679
 Alpha virt. eigenvalues --    1.86296   1.87508   1.91056   1.91446   1.92315
 Alpha virt. eigenvalues --    1.92990   1.94203   1.95067   1.96162   1.97157
 Alpha virt. eigenvalues --    1.98674   1.99890   2.00428   2.02165   2.07201
 Alpha virt. eigenvalues --    2.08265   2.08855   2.09883   2.13737   2.17891
 Alpha virt. eigenvalues --    2.19561   2.20771   2.21903   2.26134   2.31934
 Alpha virt. eigenvalues --    2.38328   2.41976   2.42475   2.43220   2.45263
 Alpha virt. eigenvalues --    2.50630   2.58366   2.60048   2.62514   2.63420
 Alpha virt. eigenvalues --    2.64964   2.67306   2.68517   2.68644   2.73024
 Alpha virt. eigenvalues --    2.79105   2.80410   2.81327   2.83748   2.87557
 Alpha virt. eigenvalues --    2.90284   2.91429   2.91828   2.92803   2.94063
 Alpha virt. eigenvalues --    3.00638   3.15337   3.46759   3.48469   3.50955
 Alpha virt. eigenvalues --    3.55302   3.58709   3.81760   4.13698   4.14763
 Alpha virt. eigenvalues --    4.18913  30.97504
          Condensed to atoms (all electrons):
               1          2          3          4          5          6
     1  Zr  10.450803   0.146656  -0.032595   0.006753  -0.082375  -0.040835
     2  Si   0.146656  12.942170  -0.712271  -0.072809  -0.149568   0.010274
     3  O   -0.032595  -0.712271   8.960144   0.106653   0.292941   0.099168
     4  O    0.006753  -0.072809   0.106653   8.568552  -0.029818   0.031201
     5  O   -0.082375  -0.149568   0.292941  -0.029818   8.541410   0.021660
     6  O   -0.040835   0.010274   0.099168   0.031201   0.021660   8.521991
     7  H   -0.003880   0.028681  -0.001562  -0.006445   0.241888   0.006492
     8  H    0.001523   0.059843  -0.021452   0.006338  -0.005245   0.233449
     9  H   -0.004997   0.036165   0.010630   0.224407  -0.005572  -0.005476
    10  O    0.028235  -0.010763  -0.024973   0.000540   0.001179   0.000693
    11  H   -0.087275   0.000628  -0.001140   0.000002   0.000002   0.000002
    12  O    0.032858  -0.012716  -0.027473   0.000291   0.001541   0.000239
    13  H   -0.086894   0.000768  -0.000759   0.000007   0.000002   0.000001
    14  O    0.021492  -0.014524  -0.026331   0.002056   0.001000  -0.000735
    15  H   -0.090401   0.001056  -0.000499   0.000070   0.000003   0.000017
               7          8          9         10         11         12
     1  Zr  -0.003880   0.001523  -0.004997   0.028235  -0.087275   0.032858
     2  Si   0.028681   0.059843   0.036165  -0.010763   0.000628  -0.012716
     3  O   -0.001562  -0.021452   0.010630  -0.024973  -0.001140  -0.027473
     4  O   -0.006445   0.006338   0.224407   0.000540   0.000002   0.000291
     5  O    0.241888  -0.005245  -0.005572   0.001179   0.000002   0.001541
     6  O    0.006492   0.233449  -0.005476   0.000693   0.000002   0.000239
     7  H    0.370542   0.000057   0.000091   0.000014  -0.000000  -0.000037
     8  H    0.000057   0.358614   0.000063  -0.000016   0.000000  -0.000006
     9  H    0.000091   0.000063   0.368385  -0.000001  -0.000000  -0.000018
    10  O    0.000014  -0.000016  -0.000001   8.609992   0.327271  -0.031481
    11  H   -0.000000   0.000000  -0.000000   0.327271   0.382362  -0.000879
    12  O   -0.000037  -0.000006  -0.000018  -0.031481  -0.000879   8.604318
    13  H   -0.000000  -0.000000  -0.000000  -0.000640  -0.000007   0.326594
    14  O   -0.000003   0.000021  -0.000051  -0.035437  -0.001311  -0.037048
    15  H    0.000000  -0.000000  -0.000000  -0.000731  -0.000008  -0.000978
              13         14         15
     1  Zr  -0.086894   0.021492  -0.090401
     2  Si   0.000768  -0.014524   0.001056
     3  O   -0.000759  -0.026331  -0.000499
     4  O    0.000007   0.002056   0.000070
     5  O    0.000002   0.001000   0.000003
     6  O    0.000001  -0.000735   0.000017
     7  H   -0.000000  -0.000003   0.000000
     8  H   -0.000000   0.000021  -0.000000
     9  H   -0.000000  -0.000051  -0.000000
    10  O   -0.000640  -0.035437  -0.000731
    11  H   -0.000007  -0.001311  -0.000008
    12  O    0.326594  -0.037048  -0.000978
    13  H    0.382011  -0.001569  -0.000011
    14  O   -0.001569   8.613037   0.331305
    15  H   -0.000011   0.331305   0.379260
 Mulliken charges:
               1
     1  Zr   1.740932
     2  Si   1.746409
     3  O   -0.620481
     4  O   -0.837797
     5  O   -0.829049
     6  O   -0.878142
     7  H    0.364161
     8  H    0.366811
     9  H    0.376375
    10  O   -0.863882
    11  H    0.380352
    12  O   -0.855204
    13  H    0.380499
    14  O   -0.851902
    15  H    0.380918
 Sum of Mulliken charges =  -0.00000
 Mulliken charges with hydrogens summed into heavy atoms:
               1
     1  Zr   1.740932
     2  Si   1.746409
     3  O   -0.620481
     4  O   -0.461422
     5  O   -0.464888
     6  O   -0.511331
    10  O   -0.483529
    12  O   -0.474705
    14  O   -0.470985
 Electronic spatial extent (au):  <R**2>=           2238.5897
 Charge=             -0.0000 electrons
 Dipole moment (field-independent basis, Debye):
    X=              1.7808    Y=             -0.4955    Z=              0.2938  Tot=              1.8716
 Quadrupole moment (field-independent basis, Debye-Ang):
   XX=            -69.0456   YY=            -67.9914   ZZ=            -68.0457
   XY=             -0.3252   XZ=             -0.0639   YZ=              0.6046
 Traceless Quadrupole moment (field-independent basis, Debye-Ang):
   XX=             -0.6847   YY=              0.3695   ZZ=              0.3152
   XY=             -0.3252   XZ=             -0.0639   YZ=              0.6046
 Octapole moment (field-independent basis, Debye-Ang**2):
  XXX=             51.3328  YYY=              9.8973  ZZZ=             15.5709  XYY=             20.1423
  XXY=              7.5786  XXZ=             -2.7533  XZZ=             27.0261  YZZ=            -12.7749
  YYZ=            -12.7360  XYZ=             -2.3382
 Hexadecapole moment (field-independent basis, Debye-Ang**3):
 XXXX=          -1895.4426 YYYY=           -357.1403 ZZZZ=           -350.2389 XXXY=           -101.4319
 XXXZ=             18.5676 YYYX=             -5.9481 YYYZ=            -21.0115 ZZZX=             38.3101
 ZZZY=              8.0700 XXYY=           -325.9042 XXZZ=           -326.4964 YYZZ=           -109.2303
 XXYZ=             58.9152 YYXZ=            -42.5439 ZZXY=             32.6580
 N-N= 6.327205479179D+02 E-N=-3.302994431414D+03  KE= 8.306842559383D+02
 1\1\GINC-GRA112\FOpt\RB3LYP\Gen\H6O7Si1Zr1\SARASHS\15-Jul-2020\0\\#n B
 3LYP/Gen Pseudo=cards EmpiricalDispersion=GD3 Opt=modredundant\\Title\
 \0,1\Zr,1.3793674422,-0.0120623383,-0.0251029194\Si,-2.1670623081,0.05
 64535643,0.020214152\O,-0.5752803973,-0.2838578885,-0.0111903018\O,-2.
 323695927,1.4693926123,0.86459973\O,-3.0031259697,-1.2171712444,0.6835
 77611\O,-2.8563442363,0.2996265247,-1.4642633972\H,-2.5561294123,-1.69
 63570793,1.3898992879\H,-3.1946194184,-0.4911579201,-1.8991635835\H,-3
 .1768211173,1.9118002162,0.7939045128\O,2.1648438648,-1.3713856654,-1.
 1594548841\H,2.6906931961,-1.9492995527,-1.7119232974\O,2.0291141699,-
 0.2002132388,1.7892934194\H,2.4536174538,-0.1575310608,2.6459715018\O,
 1.7854680531,1.745446736,-0.710517857\H,1.9337846064,2.6362863348,-1.0
 272139744\\Version=ES64L-G16RevB.01\State=1-A\HF=-867.1278456\RMSD=2.6
 98e-09\RMSF=2.139e-05\Dipole=0.6962484,-0.2202226,0.0946053\Quadrupole
 =-0.5203617,0.2097169,0.3106448,-0.217491,-0.0522613,0.4492829\PG=C01 
 [X(H6O7Si1Zr1)]\\@


 THE FIRST MORNING OF CREATION WROTE WHAT THE LAST DAWN OF
 RECKONING SHALL READ. -- OMAR KHAYYAM
 Job cpu time:       0 days  2 hours 48 minutes 41.6 seconds.
 Elapsed time:       0 days  0 hours 12 minutes  8.4 seconds.
 File lengths (MBytes):  RWF=     48 Int=      0 D2E=      0 Chk=      6 Scr=      1
 Normal termination of Gaussian 16 at Wed Jul 15 14:47:53 2020.
