 Entering Gaussian System, Link 0=g16
 Initial command:
 /opt/software/gaussian/g16.b01/l1.exe "/localscratch/sarashs.35132338.0/Gau-18324.inp" -scrdir="/localscratch/sarashs.35132338.0/"
 Entering Link 1 = /opt/software/gaussian/g16.b01/l1.exe PID=     18325.
  
 Copyright (c) 1988-2017, Gaussian, Inc.  All Rights Reserved.
  
 This is part of the Gaussian(R) 16 program.  It is based on
 the Gaussian(R) 09 system (copyright 2009, Gaussian, Inc.),
 the Gaussian(R) 03 system (copyright 2003, Gaussian, Inc.),
 the Gaussian(R) 98 system (copyright 1998, Gaussian, Inc.),
 the Gaussian(R) 94 system (copyright 1995, Gaussian, Inc.),
 the Gaussian 92(TM) system (copyright 1992, Gaussian, Inc.),
 the Gaussian 90(TM) system (copyright 1990, Gaussian, Inc.),
 the Gaussian 88(TM) system (copyright 1988, Gaussian, Inc.),
 the Gaussian 86(TM) system (copyright 1986, Carnegie Mellon
 University), and the Gaussian 82(TM) system (copyright 1983,
 Carnegie Mellon University). Gaussian is a federally registered
 trademark of Gaussian, Inc.
  
 This software contains proprietary and confidential information,
 including trade secrets, belonging to Gaussian, Inc.
  
 This software is provided under written license and may be
 used, copied, transmitted, or stored only in accord with that
 written license.
  
 The following legend is applicable only to US Government
 contracts under FAR:
  
                    RESTRICTED RIGHTS LEGEND
  
 Use, reproduction and disclosure by the US Government is
 subject to restrictions as set forth in subparagraphs (a)
 and (c) of the Commercial Computer Software - Restricted
 Rights clause in FAR 52.227-19.
  
 Gaussian, Inc.
 340 Quinnipiac St., Bldg. 40, Wallingford CT 06492
  
  
 ---------------------------------------------------------------
 Warning -- This program may not be used in any manner that
 competes with the business of Gaussian, Inc. or will provide
 assistance to any competitor of Gaussian, Inc.  The licensee
 of this program is prohibited from giving any competitor of
 Gaussian, Inc. access to this program.  By using this program,
 the user acknowledges that Gaussian, Inc. is engaged in the
 business of creating and licensing software in the field of
 computational chemistry and represents and warrants to the
 licensee that it is not a competitor of Gaussian, Inc. and that
 it will not use this program in any manner prohibited above.
 ---------------------------------------------------------------
  

 Cite this work as:
 Gaussian 16, Revision B.01,
 M. J. Frisch, G. W. Trucks, H. B. Schlegel, G. E. Scuseria, 
 M. A. Robb, J. R. Cheeseman, G. Scalmani, V. Barone, 
 G. A. Petersson, H. Nakatsuji, X. Li, M. Caricato, A. V. Marenich, 
 J. Bloino, B. G. Janesko, R. Gomperts, B. Mennucci, H. P. Hratchian, 
 J. V. Ortiz, A. F. Izmaylov, J. L. Sonnenberg, D. Williams-Young, 
 F. Ding, F. Lipparini, F. Egidi, J. Goings, B. Peng, A. Petrone, 
 T. Henderson, D. Ranasinghe, V. G. Zakrzewski, J. Gao, N. Rega, 
 G. Zheng, W. Liang, M. Hada, M. Ehara, K. Toyota, R. Fukuda, 
 J. Hasegawa, M. Ishida, T. Nakajima, Y. Honda, O. Kitao, H. Nakai, 
 T. Vreven, K. Throssell, J. A. Montgomery, Jr., J. E. Peralta, 
 F. Ogliaro, M. J. Bearpark, J. J. Heyd, E. N. Brothers, K. N. Kudin, 
 V. N. Staroverov, T. A. Keith, R. Kobayashi, J. Normand, 
 K. Raghavachari, A. P. Rendell, J. C. Burant, S. S. Iyengar, 
 J. Tomasi, M. Cossi, J. M. Millam, M. Klene, C. Adamo, R. Cammi, 
 J. W. Ochterski, R. L. Martin, K. Morokuma, O. Farkas, 
 J. B. Foresman, and D. J. Fox, Gaussian, Inc., Wallingford CT, 2016.
 
 ******************************************
 Gaussian 16:  ES64L-G16RevB.01 20-Dec-2017
                15-Jul-2020 
 ******************************************
 %NProcShared=16
 Will use up to   16 processors via shared memory.
 ------------------------------------------------------------------
 #n B3LYP/Gen Pseudo=cards EmpiricalDispersion=GD3 Opt=modredundant
 ------------------------------------------------------------------
 1/18=120,19=15,26=3,38=1/1,3;
 2/9=110,12=2,17=6,18=5,40=1/2;
 3/5=7,11=2,16=1,17=8,25=1,30=1,71=1,74=-5,124=31/1,2,3;
 4//1;
 5/5=2,38=5/2;
 6/7=2,8=2,9=2,10=2,28=1/1;
 7//1,2,3,16;
 1/18=20,19=15,26=3/3(2);
 2/9=110/2;
 99//99;
 2/9=110/2;
 3/5=7,6=1,11=2,16=1,17=8,25=1,30=1,71=1,74=-5,82=7,124=31/1,2,3;
 4/5=5,16=3,69=1/1;
 5/5=2,38=5/2;
 7//1,2,3,16;
 1/18=20,19=15,26=3/3(-5);
 2/9=110/2;
 6/7=2,8=2,9=2,10=2,19=2,28=1/1;
 99/9=1/99;
 -----
 Title
 -----
 Symbolic Z-matrix:
 Charge =  0 Multiplicity = 1
 Zr                    1.37839  -0.01367  -0.01029 
 Si                   -2.18162  -0.02177   0.01397 
 O                    -0.57498  -0.28442   0.01654 
 O                    -2.41465   1.44853   0.73289 
 O                    -2.95861  -1.27379   0.78231 
 O                    -2.87072   0.05734  -1.48824 
 H                    -2.49659  -1.66321   1.53281 
 H                    -3.16517  -0.78405  -1.85466 
 H                    -3.28787   1.84003   0.61988 
 O                     2.15239  -1.31312  -1.2196 
 H                     2.65751  -1.85105  -1.82887 
 O                     2.04402  -0.29207   1.78758 
 H                     2.51011  -0.3161    2.62313 
 O                     1.78195   1.7752   -0.6111 
 H                     1.91399   2.68442  -0.87911 
 
 The following ModRedundant input section has been read:
 A       1       2       3 F                                                   
 

 GradGradGradGradGradGradGradGradGradGradGradGradGradGradGradGradGradGrad
 Berny optimization.
 Initialization pass.
                           ----------------------------
                           !    Initial Parameters    !
                           ! (Angstroms and Degrees)  !
 --------------------------                            --------------------------
 ! Name  Definition              Value          Derivative Info.                !
 --------------------------------------------------------------------------------
 ! R1    R(1,3)                  1.9722         estimate D2E/DX2                !
 ! R2    R(1,10)                 1.9365         estimate D2E/DX2                !
 ! R3    R(1,12)                 1.9372         estimate D2E/DX2                !
 ! R4    R(1,14)                 1.9297         estimate D2E/DX2                !
 ! R5    R(2,3)                  1.628          estimate D2E/DX2                !
 ! R6    R(2,4)                  1.6532         estimate D2E/DX2                !
 ! R7    R(2,5)                  1.6618         estimate D2E/DX2                !
 ! R8    R(2,6)                  1.6546         estimate D2E/DX2                !
 ! R9    R(4,9)                  0.9636         estimate D2E/DX2                !
 ! R10   R(5,7)                  0.9635         estimate D2E/DX2                !
 ! R11   R(6,8)                  0.9638         estimate D2E/DX2                !
 ! R12   R(10,11)                0.9569         estimate D2E/DX2                !
 ! R13   R(12,13)                0.9571         estimate D2E/DX2                !
 ! R14   R(14,15)                0.9571         estimate D2E/DX2                !
 ! A1    A(3,1,10)             108.1944         estimate D2E/DX2                !
 ! A2    A(3,1,12)             107.9362         estimate D2E/DX2                !
 ! A3    A(3,1,14)             109.793          estimate D2E/DX2                !
 ! A4    A(10,1,12)            110.2299         estimate D2E/DX2                !
 ! A5    A(10,1,14)            110.1226         estimate D2E/DX2                !
 ! A6    A(12,1,14)            110.5061         estimate D2E/DX2                !
 ! A7    A(1,2,3)                9.427          Frozen                          !
 ! A8    A(3,2,4)              106.3747         estimate D2E/DX2                !
 ! A9    A(3,2,5)              109.825          estimate D2E/DX2                !
 ! A10   A(3,2,6)              114.8448         estimate D2E/DX2                !
 ! A11   A(4,2,5)              113.7721         estimate D2E/DX2                !
 ! A12   A(4,2,6)              107.0731         estimate D2E/DX2                !
 ! A13   A(5,2,6)              105.1331         estimate D2E/DX2                !
 ! A14   A(1,3,2)              162.8027         estimate D2E/DX2                !
 ! A15   A(2,4,9)              115.9814         estimate D2E/DX2                !
 ! A16   A(2,5,7)              116.1317         estimate D2E/DX2                !
 ! A17   A(2,6,8)              115.5096         estimate D2E/DX2                !
 ! A18   L(1,10,11,8,-1)       187.332          estimate D2E/DX2                !
 ! A19   L(1,12,13,7,-1)       190.6603         estimate D2E/DX2                !
 ! A20   L(1,14,15,4,-1)       175.4314         estimate D2E/DX2                !
 ! A21   L(1,10,11,8,-2)       172.9446         estimate D2E/DX2                !
 ! A22   L(1,12,13,7,-2)       183.5624         estimate D2E/DX2                !
 ! A23   L(1,14,15,4,-2)       179.1023         estimate D2E/DX2                !
 ! D1    D(10,1,3,2)          -136.4111         estimate D2E/DX2                !
 ! D2    D(12,1,3,2)           104.3161         estimate D2E/DX2                !
 ! D3    D(14,1,3,2)           -16.202          estimate D2E/DX2                !
 ! D4    D(4,2,3,1)            -29.9128         estimate D2E/DX2                !
 ! D5    D(5,2,3,1)           -153.4544         estimate D2E/DX2                !
 ! D6    D(6,2,3,1)             88.3335         estimate D2E/DX2                !
 ! D7    D(3,2,4,9)            165.916          estimate D2E/DX2                !
 ! D8    D(5,2,4,9)            -73.0407         estimate D2E/DX2                !
 ! D9    D(6,2,4,9)             42.6616         estimate D2E/DX2                !
 ! D10   D(3,2,5,7)             35.329          estimate D2E/DX2                !
 ! D11   D(4,2,5,7)            -83.7659         estimate D2E/DX2                !
 ! D12   D(6,2,5,7)            159.397          estimate D2E/DX2                !
 ! D13   D(3,2,6,8)             88.6227         estimate D2E/DX2                !
 ! D14   D(4,2,6,8)           -153.5249         estimate D2E/DX2                !
 ! D15   D(5,2,6,8)            -32.2            estimate D2E/DX2                !
 --------------------------------------------------------------------------------
 Trust Radius=3.00D-01 FncErr=1.00D-07 GrdErr=1.00D-06 EigMax=2.50D+02 EigMin=1.00D-04
 Number of steps in this run=     62 maximum allowed number of steps=    100.
 GradGradGradGradGradGradGradGradGradGradGradGradGradGradGradGradGradGrad

                          Input orientation:                          
 ---------------------------------------------------------------------
 Center     Atomic      Atomic             Coordinates (Angstroms)
 Number     Number       Type             X           Y           Z
 ---------------------------------------------------------------------
      1         40           0        1.378390   -0.013670   -0.010290
      2         14           0       -2.181620   -0.021770    0.013970
      3          8           0       -0.574980   -0.284420    0.016540
      4          8           0       -2.414650    1.448530    0.732890
      5          8           0       -2.958610   -1.273790    0.782310
      6          8           0       -2.870720    0.057340   -1.488240
      7          1           0       -2.496590   -1.663210    1.532810
      8          1           0       -3.165170   -0.784050   -1.854660
      9          1           0       -3.287870    1.840030    0.619880
     10          8           0        2.152390   -1.313120   -1.219600
     11          1           0        2.657510   -1.851050   -1.828870
     12          8           0        2.044020   -0.292070    1.787580
     13          1           0        2.510110   -0.316100    2.623130
     14          8           0        1.781950    1.775200   -0.611100
     15          1           0        1.913990    2.684420   -0.879110
 ---------------------------------------------------------------------
                    Distance matrix (angstroms):
                    1          2          3          4          5
     1  Zr   0.000000
     2  Si   3.560102   0.000000
     3  O    1.972227   1.627969   0.000000
     4  O    4.132493   1.653158   2.626910   0.000000
     5  O    4.585377   1.661810   2.692016   2.776574   0.000000
     6  O    4.499368   1.654615   2.766150   2.660231   2.633444
     7  H    4.485266   2.258408   2.809399   3.213956   0.963515
     8  H    4.963781   2.245043   3.234208   3.499015   2.690004
     9  H    5.060366   2.248825   3.498154   0.963616   3.135390
    10  O    1.936512   4.687528   3.166198   5.683026   5.489218
    11  H    2.884328   5.491767   4.038423   6.570894   6.220313
    12  O    1.937242   4.590728   3.161614   4.901204   5.196215
    13  H    2.882214   5.376493   4.038947   5.562390   5.849161
    14  O    1.929738   4.396556   3.192348   4.418651   5.806104
    15  H    2.884685   4.989497   3.976326   4.781537   6.493841
                    6          7          8          9         10
     6  O    0.000000
     7  H    3.496714   0.000000
     8  H    0.963795   3.562987   0.000000
     9  H    2.792162   3.705706   3.608906   0.000000
    10  O    5.213632   5.413995   5.381418   6.551524   0.000000
    11  H    5.858268   6.156373   5.919692   7.414040   0.956935
    12  O    5.916735   4.749955   6.375235   5.859900   3.177644
    13  H    6.782046   5.298165   7.244197   6.502190   3.986049
    14  O    5.036641   5.892785   5.707031   5.217527   3.169419
    15  H    5.492362   6.646237   6.227347   5.478988   4.019091
                   11         12         13         14         15
    11  H    0.000000
    12  O    3.985662   0.000000
    13  H    4.711486   0.957059   0.000000
    14  O    3.924189   3.177413   3.919693   0.000000
    15  H    4.693118   3.998454   4.650179   0.957050   0.000000
 Stoichiometry    H6O7SiZr
 Framework group  C1[X(H6O7SiZr)]
 Deg. of freedom    39
 Full point group                 C1      NOp   1
 Largest Abelian subgroup         C1      NOp   1
 Largest concise Abelian subgroup C1      NOp   1
                         Standard orientation:                         
 ---------------------------------------------------------------------
 Center     Atomic      Atomic             Coordinates (Angstroms)
 Number     Number       Type             X           Y           Z
 ---------------------------------------------------------------------
      1         40           0        1.378389   -0.013667   -0.010292
      2         14           0       -2.181621   -0.021771    0.013968
      3          8           0       -0.574981   -0.284419    0.016538
      4          8           0       -2.414652    1.448529    0.732888
      5          8           0       -2.958610   -1.273791    0.782308
      6          8           0       -2.870721    0.057339   -1.488242
      7          1           0       -2.496589   -1.663211    1.532808
      8          1           0       -3.165170   -0.784052   -1.854662
      9          1           0       -3.287873    1.840028    0.619878
     10          8           0        2.152390   -1.313116   -1.219602
     11          1           0        2.657511   -1.851046   -1.828872
     12          8           0        2.044019   -0.292066    1.787578
     13          1           0        2.510109   -0.316096    2.623128
     14          8           0        1.781947    1.775203   -0.611102
     15          1           0        1.913986    2.684423   -0.879112
 ---------------------------------------------------------------------
 Rotational constants (GHZ):           1.6308708           0.4761166           0.4734902
 General basis read from cards:  (5D, 7F)
 ======================================================================================================
                                       Pseudopotential Parameters
 ======================================================================================================
  Center     Atomic      Valence      Angular      Power
  Number     Number     Electrons     Momentum     of R      Exponent        Coefficient   SO-Coeffient
 ======================================================================================================
    1         40           12
                                      G and up 
                                                     2        1.0000000        0.00000000    0.00000000
                                      S - G
                                                     2        8.6365280      150.24299400    0.00000000
                                                     2        3.7176390       18.78003600    0.00000000
                                      P - G
                                                     2        7.6267280       33.19279100    0.00000000
                                                     2        7.4532070       66.38903900    0.00000000
                                                     2        3.3583890        4.62072600    0.00000000
                                                     2        3.2297380        9.26027000    0.00000000
                                      D - G
                                                     2        5.9380860       13.99338300    0.00000000
                                                     2        5.8255440       20.99588200    0.00000000
                                                     2        2.2050190        2.28516600    0.00000000
                                                     2        2.2062920        3.44126000    0.00000000
                                      F - G
                                                     2        4.8002150       -5.23932000    0.00000000
                                                     2        4.7989920       -6.98742400    0.00000000
    2         14
                                   No pseudopotential on this center.
    3          8
                                   No pseudopotential on this center.
    4          8
                                   No pseudopotential on this center.
    5          8
                                   No pseudopotential on this center.
    6          8
                                   No pseudopotential on this center.
    7          1
                                   No pseudopotential on this center.
    8          1
                                   No pseudopotential on this center.
    9          1
                                   No pseudopotential on this center.
   10          8
                                   No pseudopotential on this center.
   11          1
                                   No pseudopotential on this center.
   12          8
                                   No pseudopotential on this center.
   13          1
                                   No pseudopotential on this center.
   14          8
                                   No pseudopotential on this center.
   15          1
                                   No pseudopotential on this center.
 ======================================================================================================
 There are   300 symmetry adapted cartesian basis functions of A   symmetry.
 There are   266 symmetry adapted basis functions of A   symmetry.
   266 basis functions,   576 primitive gaussians,   300 cartesian basis functions
    44 alpha electrons       44 beta electrons
       nuclear repulsion energy       632.0955551961 Hartrees.
 NAtoms=   15 NActive=   15 NUniq=   15 SFac= 1.00D+00 NAtFMM=   60 NAOKFM=F Big=F
 Integral buffers will be    131072 words long.
 Raffenetti 2 integral format.
 Two-electron integral symmetry is turned on.
 Nuclear repulsion after empirical dispersion term =      632.0853358210 Hartrees.
 One-electron integrals computed using PRISM.
 PrsmSu:  requested number of processors reduced to:   4 ShMem   1 Linda.
   1 Symmetry operations used in ECPInt.
 ECPInt:  NShTT=    3321 NPrTT=   20810 LenC2=    3172 LenP2D=   14986.
 LDataN:  DoStor=T MaxTD1= 8 Len=  415
 NBasis=   266 RedAO= T EigKep=  1.02D-04  NBF=   266
 NBsUse=   266 1.00D-06 EigRej= -1.00D+00 NBFU=   266
 Defaulting to unpruned grid for atomic number  40.
 ExpMin= 1.01D-02 ExpMax= 1.61D+04 ExpMxC= 2.43D+03 IAcc=3 IRadAn=         5 AccDes= 0.00D+00
 Harris functional with IExCor=  402 and IRadAn=       5 diagonalized for initial guess.
 HarFok:  IExCor=  402 AccDes= 0.00D+00 IRadAn=         5 IDoV= 1 UseB2=F ITyADJ=14
 ICtDFT=  3500011 ScaDFX=  1.000000  1.000000  1.000000  1.000000
 Defaulting to unpruned grid for atomic number  40.
 FoFCou: FMM=F IPFlag=           0 FMFlag=      100000 FMFlg1=           0
         NFxFlg=           0 DoJE=T BraDBF=F KetDBF=T FulRan=T
         wScrn=  0.000000 ICntrl=       500 IOpCl=  0 I1Cent=   200000004 NGrid=           0
         NMat0=    1 NMatS0=      1 NMatT0=    0 NMatD0=    1 NMtDS0=    0 NMtDT0=    0
 Petite list used in FoFCou.
 Requested convergence on RMS density matrix=1.00D-08 within 128 cycles.
 Requested convergence on MAX density matrix=1.00D-06.
 Requested convergence on             energy=1.00D-06.
 No special actions if energy rises.
 Defaulting to unpruned grid for atomic number  40.
 Defaulting to unpruned grid for atomic number  40.
 Defaulting to unpruned grid for atomic number  40.
 Defaulting to unpruned grid for atomic number  40.
 Defaulting to unpruned grid for atomic number  40.
 Defaulting to unpruned grid for atomic number  40.
 Defaulting to unpruned grid for atomic number  40.
 Defaulting to unpruned grid for atomic number  40.
 Defaulting to unpruned grid for atomic number  40.
 Defaulting to unpruned grid for atomic number  40.
 Defaulting to unpruned grid for atomic number  40.
 Defaulting to unpruned grid for atomic number  40.
 Defaulting to unpruned grid for atomic number  40.
 Defaulting to unpruned grid for atomic number  40.
 Defaulting to unpruned grid for atomic number  40.
 Defaulting to unpruned grid for atomic number  40.
 SCF Done:  E(RB3LYP) =  -867.127849883     A.U. after   13 cycles
            NFock= 13  Conv=0.29D-08     -V/T= 2.0439

 **********************************************************************

            Population analysis using the SCF Density.

 **********************************************************************

 Orbital symmetries:
       Occupied  (A) (A) (A) (A) (A) (A) (A) (A) (A) (A) (A) (A)
                 (A) (A) (A) (A) (A) (A) (A) (A) (A) (A) (A) (A)
                 (A) (A) (A) (A) (A) (A) (A) (A) (A) (A) (A) (A)
                 (A) (A) (A) (A) (A) (A) (A) (A)
       Virtual   (A) (A) (A) (A) (A) (A) (A) (A) (A) (A) (A) (A)
                 (A) (A) (A) (A) (A) (A) (A) (A) (A) (A) (A) (A)
                 (A) (A) (A) (A) (A) (A) (A) (A) (A) (A) (A) (A)
                 (A) (A) (A) (A) (A) (A) (A) (A) (A) (A) (A) (A)
                 (A) (A) (A) (A) (A) (A) (A) (A) (A) (A) (A) (A)
                 (A) (A) (A) (A) (A) (A) (A) (A) (A) (A) (A) (A)
                 (A) (A) (A) (A) (A) (A) (A) (A) (A) (A) (A) (A)
                 (A) (A) (A) (A) (A) (A) (A) (A) (A) (A) (A) (A)
                 (A) (A) (A) (A) (A) (A) (A) (A) (A) (A) (A) (A)
                 (A) (A) (A) (A) (A) (A) (A) (A) (A) (A) (A) (A)
                 (A) (A) (A) (A) (A) (A) (A) (A) (A) (A) (A) (A)
                 (A) (A) (A) (A) (A) (A) (A) (A) (A) (A) (A) (A)
                 (A) (A) (A) (A) (A) (A) (A) (A) (A) (A) (A) (A)
                 (A) (A) (A) (A) (A) (A) (A) (A) (A) (A) (A) (A)
                 (A) (A) (A) (A) (A) (A) (A) (A) (A) (A) (A) (A)
                 (A) (A) (A) (A) (A) (A) (A) (A) (A) (A) (A) (A)
                 (A) (A) (A) (A) (A) (A) (A) (A) (A) (A) (A) (A)
                 (A) (A) (A) (A) (A) (A) (A) (A) (A) (A) (A) (A)
                 (A) (A) (A) (A) (A) (A)
 The electronic state is 1-A.
 Alpha  occ. eigenvalues --  -66.19951 -19.15199 -19.15155 -19.14927 -19.14394
 Alpha  occ. eigenvalues --  -19.14292 -19.14216 -19.13211  -5.34048  -3.70014
 Alpha  occ. eigenvalues --   -3.70007  -3.69969  -2.11221  -1.27529  -1.27425
 Alpha  occ. eigenvalues --   -1.27115  -1.02793  -0.99610  -0.99424  -0.96629
 Alpha  occ. eigenvalues --   -0.95426  -0.95364  -0.94118  -0.57467  -0.52276
 Alpha  occ. eigenvalues --   -0.51587  -0.50357  -0.49675  -0.49622  -0.45655
 Alpha  occ. eigenvalues --   -0.39589  -0.37770  -0.37270  -0.36057  -0.35632
 Alpha  occ. eigenvalues --   -0.34676  -0.34232  -0.33921  -0.32933  -0.32777
 Alpha  occ. eigenvalues --   -0.32050  -0.31291  -0.31208  -0.30679
 Alpha virt. eigenvalues --   -0.02922  -0.01297  -0.00718  -0.00559   0.00289
 Alpha virt. eigenvalues --    0.00380   0.01046   0.01248   0.01752   0.02351
 Alpha virt. eigenvalues --    0.02412   0.02963   0.03184   0.03292   0.03359
 Alpha virt. eigenvalues --    0.04264   0.04521   0.04618   0.05313   0.05760
 Alpha virt. eigenvalues --    0.06773   0.09109   0.09568   0.09831   0.10062
 Alpha virt. eigenvalues --    0.10163   0.11282   0.12478   0.13378   0.13789
 Alpha virt. eigenvalues --    0.14738   0.15454   0.15986   0.16343   0.17973
 Alpha virt. eigenvalues --    0.18284   0.18344   0.19032   0.19512   0.19928
 Alpha virt. eigenvalues --    0.20165   0.20339   0.21333   0.21702   0.22452
 Alpha virt. eigenvalues --    0.23314   0.24287   0.25095   0.26186   0.26516
 Alpha virt. eigenvalues --    0.27079   0.27418   0.27854   0.28422   0.28556
 Alpha virt. eigenvalues --    0.29146   0.29495   0.29616   0.29849   0.30717
 Alpha virt. eigenvalues --    0.31238   0.32917   0.34205   0.34613   0.35454
 Alpha virt. eigenvalues --    0.35669   0.36404   0.36829   0.37812   0.39077
 Alpha virt. eigenvalues --    0.41719   0.44062   0.44352   0.46597   0.47698
 Alpha virt. eigenvalues --    0.48307   0.49410   0.50605   0.51721   0.52703
 Alpha virt. eigenvalues --    0.55082   0.57182   0.58227   0.60107   0.60668
 Alpha virt. eigenvalues --    0.61552   0.62397   0.62757   0.64611   0.65300
 Alpha virt. eigenvalues --    0.66464   0.68090   0.69233   0.72539   0.73885
 Alpha virt. eigenvalues --    0.74474   0.76056   0.77352   0.78773   0.81303
 Alpha virt. eigenvalues --    0.85740   0.86063   0.96125   0.97770   0.98827
 Alpha virt. eigenvalues --    1.01739   1.02506   1.04578   1.05660   1.06543
 Alpha virt. eigenvalues --    1.07769   1.18644   1.19903   1.20555   1.21396
 Alpha virt. eigenvalues --    1.21558   1.22774   1.23462   1.23921   1.24332
 Alpha virt. eigenvalues --    1.25566   1.26445   1.28050   1.28668   1.28826
 Alpha virt. eigenvalues --    1.29136   1.30298   1.31232   1.31513   1.32998
 Alpha virt. eigenvalues --    1.33317   1.36703   1.42812   1.43504   1.45698
 Alpha virt. eigenvalues --    1.48828   1.52872   1.57337   1.59723   1.61080
 Alpha virt. eigenvalues --    1.62578   1.63143   1.63670   1.64496   1.67719
 Alpha virt. eigenvalues --    1.69530   1.71364   1.72336   1.72851   1.73097
 Alpha virt. eigenvalues --    1.73871   1.73951   1.74999   1.76658   1.77327
 Alpha virt. eigenvalues --    1.79340   1.80526   1.83116   1.83504   1.84517
 Alpha virt. eigenvalues --    1.86266   1.87790   1.90979   1.91244   1.92458
 Alpha virt. eigenvalues --    1.93126   1.94253   1.95112   1.95866   1.97171
 Alpha virt. eigenvalues --    1.99044   1.99536   2.00258   2.01850   2.06997
 Alpha virt. eigenvalues --    2.07677   2.08581   2.10046   2.14360   2.17496
 Alpha virt. eigenvalues --    2.20031   2.20433   2.21466   2.26429   2.31871
 Alpha virt. eigenvalues --    2.38020   2.41941   2.42409   2.43404   2.45188
 Alpha virt. eigenvalues --    2.50788   2.58486   2.59838   2.62510   2.63425
 Alpha virt. eigenvalues --    2.64857   2.67026   2.68374   2.68643   2.73072
 Alpha virt. eigenvalues --    2.78675   2.80430   2.80992   2.83768   2.87707
 Alpha virt. eigenvalues --    2.90310   2.91252   2.91474   2.92669   2.93988
 Alpha virt. eigenvalues --    3.01394   3.16155   3.46768   3.48400   3.51202
 Alpha virt. eigenvalues --    3.54633   3.58069   3.84762   4.13364   4.14781
 Alpha virt. eigenvalues --    4.18575  31.01435
          Condensed to atoms (all electrons):
               1          2          3          4          5          6
     1  Zr  10.441372   0.143214  -0.032349   0.004935  -0.078600  -0.042034
     2  Si   0.143214  12.929487  -0.700734  -0.070312  -0.139527   0.010296
     3  O   -0.032349  -0.700734   8.958006   0.109537   0.285266   0.099795
     4  O    0.004935  -0.070312   0.109537   8.564951  -0.030208   0.028032
     5  O   -0.078600  -0.139527   0.285266  -0.030208   8.534414   0.023355
     6  O   -0.042034   0.010296   0.099795   0.028032   0.023355   8.522383
     7  H   -0.003603   0.028706  -0.001950  -0.006457   0.242098   0.006549
     8  H    0.001416   0.060519  -0.021488   0.006540  -0.005499   0.232979
     9  H   -0.004713   0.036235   0.010484   0.224307  -0.005641  -0.005592
    10  O    0.031350  -0.012636  -0.025573   0.000618   0.001013   0.000954
    11  H   -0.087333   0.000717  -0.001116   0.000001   0.000002   0.000005
    12  O    0.035818  -0.012896  -0.026609   0.000084   0.001727   0.000240
    13  H   -0.086478   0.000761  -0.000843   0.000000   0.000003   0.000001
    14  O    0.025202  -0.018565  -0.025476   0.002609   0.001011  -0.000736
    15  H   -0.090377   0.001025  -0.000555   0.000082   0.000003   0.000012
               7          8          9         10         11         12
     1  Zr  -0.003603   0.001416  -0.004713   0.031350  -0.087333   0.035818
     2  Si   0.028706   0.060519   0.036235  -0.012636   0.000717  -0.012896
     3  O   -0.001950  -0.021488   0.010484  -0.025573  -0.001116  -0.026609
     4  O   -0.006457   0.006540   0.224307   0.000618   0.000001   0.000084
     5  O    0.242098  -0.005499  -0.005641   0.001013   0.000002   0.001727
     6  O    0.006549   0.232979  -0.005592   0.000954   0.000005   0.000240
     7  H    0.370642   0.000056   0.000092   0.000016   0.000000  -0.000059
     8  H    0.000056   0.358659   0.000060  -0.000013   0.000000  -0.000007
     9  H    0.000092   0.000060   0.369204  -0.000001  -0.000000  -0.000014
    10  O    0.000016  -0.000013  -0.000001   8.607317   0.327194  -0.032067
    11  H    0.000000   0.000000  -0.000000   0.327194   0.382309  -0.000808
    12  O   -0.000059  -0.000007  -0.000014  -0.032067  -0.000808   8.602644
    13  H   -0.000000  -0.000000  -0.000000  -0.000751  -0.000008   0.325761
    14  O   -0.000006   0.000010  -0.000067  -0.034885  -0.001338  -0.037184
    15  H    0.000000  -0.000000  -0.000000  -0.000685  -0.000008  -0.000952
              13         14         15
     1  Zr  -0.086478   0.025202  -0.090377
     2  Si   0.000761  -0.018565   0.001025
     3  O   -0.000843  -0.025476  -0.000555
     4  O    0.000000   0.002609   0.000082
     5  O    0.000003   0.001011   0.000003
     6  O    0.000001  -0.000736   0.000012
     7  H   -0.000000  -0.000006   0.000000
     8  H   -0.000000   0.000010  -0.000000
     9  H   -0.000000  -0.000067  -0.000000
    10  O   -0.000751  -0.034885  -0.000685
    11  H   -0.000008  -0.001338  -0.000008
    12  O    0.325761  -0.037184  -0.000952
    13  H    0.382247  -0.001491  -0.000011
    14  O   -0.001491   8.609103   0.331704
    15  H   -0.000011   0.331704   0.378977
 Mulliken charges:
               1
     1  Zr   1.742180
     2  Si   1.743710
     3  O   -0.626397
     4  O   -0.834720
     5  O   -0.829416
     6  O   -0.876239
     7  H    0.363914
     8  H    0.366769
     9  H    0.375645
    10  O   -0.861851
    11  H    0.380381
    12  O   -0.855677
    13  H    0.380807
    14  O   -0.849892
    15  H    0.380784
 Sum of Mulliken charges =  -0.00000
 Mulliken charges with hydrogens summed into heavy atoms:
               1
     1  Zr   1.742180
     2  Si   1.743710
     3  O   -0.626397
     4  O   -0.459075
     5  O   -0.465501
     6  O   -0.509470
    10  O   -0.481470
    12  O   -0.474870
    14  O   -0.469107
 Electronic spatial extent (au):  <R**2>=           2248.1491
 Charge=              0.0000 electrons
 Dipole moment (field-independent basis, Debye):
    X=              1.8331    Y=             -0.5705    Z=              0.2908  Tot=              1.9417
 Quadrupole moment (field-independent basis, Debye-Ang):
   XX=            -68.9628   YY=            -68.2320   ZZ=            -67.9830
   XY=             -0.3539   XZ=             -0.0072   YZ=              0.5984
 Traceless Quadrupole moment (field-independent basis, Debye-Ang):
   XX=             -0.5702   YY=              0.1606   ZZ=              0.4096
   XY=             -0.3539   XZ=             -0.0072   YZ=              0.5984
 Octapole moment (field-independent basis, Debye-Ang**2):
  XXX=             50.4209  YYY=             14.7996  ZZZ=             13.1232  XYY=             19.6968
  XXY=              8.2686  XXZ=             -1.6016  XZZ=             28.9569  YZZ=            -18.9936
  YYZ=            -11.1720  XYZ=             -3.5294
 Hexadecapole moment (field-independent basis, Debye-Ang**3):
 XXXX=          -1899.2352 YYYY=           -353.2717 ZZZZ=           -349.2641 XXXY=           -101.2555
 XXXZ=             19.7734 YYYX=             10.6306 YYYZ=            -17.7432 ZZZX=             31.1180
 ZZZY=              7.3494 XXYY=           -335.3229 XXZZ=           -322.4503 YYZZ=           -113.3396
 XXYZ=             53.8186 YYXZ=            -35.7343 ZZXY=             15.5068
 N-N= 6.320853358210D+02 E-N=-3.301717191405D+03  KE= 8.306841169087D+02
 PrsmSu:  requested number of processors reduced to:   2 ShMem   1 Linda.
 PrsmSu:  requested number of processors reduced to:  10 ShMem   1 Linda.
   1 Symmetry operations used in ECPInt.
 ECPInt:  NShTT=    3321 NPrTT=   20810 LenC2=    3172 LenP2D=   14986.
 LDataN:  DoStor=T MaxTD1= 9 Len=  602
 Calling FoFJK, ICntrl=      2127 FMM=F ISym2X=0 I1Cent= 0 IOpClX= 0 NMat=1 NMatS=1 NMatT=0.
 CoulSu:  requested number of processors reduced to:  10 ShMem   1 Linda.
 Defaulting to unpruned grid for atomic number  40.
 Defaulting to unpruned grid for atomic number  40.
 Defaulting to unpruned grid for atomic number  40.
 Defaulting to unpruned grid for atomic number  40.
 Defaulting to unpruned grid for atomic number  40.
 Defaulting to unpruned grid for atomic number  40.
 Defaulting to unpruned grid for atomic number  40.
 Defaulting to unpruned grid for atomic number  40.
 Defaulting to unpruned grid for atomic number  40.
 Defaulting to unpruned grid for atomic number  40.
 Defaulting to unpruned grid for atomic number  40.
 Defaulting to unpruned grid for atomic number  40.
 Defaulting to unpruned grid for atomic number  40.
 Defaulting to unpruned grid for atomic number  40.
 Defaulting to unpruned grid for atomic number  40.
 Defaulting to unpruned grid for atomic number  40.
 ***** Axes restored to original set *****
 -------------------------------------------------------------------
 Center     Atomic                   Forces (Hartrees/Bohr)
 Number     Number              X              Y              Z
 -------------------------------------------------------------------
      1       40           0.000002919   -0.000006169   -0.000004402
      2       14          -0.000006209   -0.000005857   -0.000000378
      3        8           0.000003312    0.000021286    0.000004345
      4        8           0.000005598    0.000002458   -0.000008856
      5        8           0.000003587   -0.000007453   -0.000001083
      6        8          -0.000002980   -0.000000727    0.000003745
      7        1          -0.000004401    0.000004669   -0.000000805
      8        1           0.000003802    0.000002076   -0.000001725
      9        1          -0.000001831   -0.000005079    0.000009314
     10        8          -0.000002389   -0.000001470   -0.000004197
     11        1           0.000001211   -0.000001228   -0.000000456
     12        8          -0.000000280   -0.000005677   -0.000000160
     13        1           0.000002472    0.000000033    0.000002873
     14        8          -0.000005188    0.000005009    0.000000864
     15        1           0.000000375   -0.000001870    0.000000921
 -------------------------------------------------------------------
 Cartesian Forces:  Max     0.000021286 RMS     0.000005039

 GradGradGradGradGradGradGradGradGradGradGradGradGradGradGradGradGradGrad
 Berny optimization.
 FormGI is forming the generalized inverse of G from B-inverse, IUseBI=4.
 Internal  Forces:  Max     0.000028433 RMS     0.000005416
 Search for a local minimum.
 Step number   1 out of a maximum of   62
 All quantities printed in internal units (Hartrees-Bohrs-Radians)
 Mixed Optimization -- En-DIIS/RFO-DIIS
 Second derivative matrix not updated -- first step.
 ITU=  0
     Eigenvalues ---    0.00230   0.01596   0.01596   0.01597   0.01597
     Eigenvalues ---    0.01598   0.01598   0.03522   0.03617   0.03636
     Eigenvalues ---    0.03969   0.11780   0.12039   0.12694   0.15564
     Eigenvalues ---    0.15873   0.16000   0.16000   0.16000   0.19498
     Eigenvalues ---    0.20181   0.21252   0.21482   0.21527   0.21945
     Eigenvalues ---    0.25000   0.25000   0.25000   0.40909   0.41958
     Eigenvalues ---    0.42174   0.46127   0.54665   0.54703   0.54724
     Eigenvalues ---    0.56111   0.56113   0.561381000.000001000.00000
     Eigenvalues --- 1000.000001000.000001000.000001000.000001000.00000
     Eigenvalues --- 1000.000001000.000001000.000001000.000001000.00000
     Eigenvalues --- 1000.000001000.00000
 RFO step:  Lambda= 0.00000000D+00 EMin= 2.30000000D-03
 Linear search not attempted -- first point.
 Iteration  1 RMS(Cart)=  0.00010695 RMS(Int)=  0.00000001
 Iteration  2 RMS(Cart)=  0.00000001 RMS(Int)=  0.00000000
 Iteration  1 RMS(Cart)=  0.00000000 RMS(Int)=  0.00000000
 Variable       Old X    -DE/DX   Delta X   Delta X   Delta X     New X
                                 (Linear)    (Quad)   (Total)
    R1        3.72697  -0.00000   0.00000  -0.00001  -0.00001   3.72696
    R2        3.65948   0.00000   0.00000   0.00002   0.00002   3.65949
    R3        3.66086   0.00000   0.00000   0.00002   0.00002   3.66088
    R4        3.64668   0.00000   0.00000   0.00000   0.00000   3.64668
    R5        3.07642   0.00000   0.00000  -0.00000  -0.00000   3.07641
    R6        3.12402  -0.00000   0.00000  -0.00001  -0.00001   3.12401
    R7        3.14037   0.00000   0.00000   0.00000   0.00000   3.14037
    R8        3.12677  -0.00000   0.00000  -0.00000  -0.00000   3.12677
    R9        1.82097  -0.00000   0.00000  -0.00000  -0.00000   1.82097
   R10        1.82078  -0.00000   0.00000  -0.00001  -0.00001   1.82077
   R11        1.82131  -0.00000   0.00000  -0.00000  -0.00000   1.82131
   R12        1.80835   0.00000   0.00000   0.00000   0.00000   1.80835
   R13        1.80858   0.00000   0.00000   0.00001   0.00001   1.80859
   R14        1.80856  -0.00000   0.00000  -0.00000  -0.00000   1.80856
    A1        1.88835  -0.00000   0.00000  -0.00002  -0.00002   1.88833
    A2        1.88384  -0.00000   0.00000  -0.00000  -0.00000   1.88384
    A3        1.91625  -0.00001   0.00000  -0.00003  -0.00003   1.91621
    A4        1.92387  -0.00000   0.00000  -0.00001  -0.00001   1.92387
    A5        1.92200   0.00001   0.00000   0.00004   0.00004   1.92204
    A6        1.92870   0.00001   0.00000   0.00002   0.00002   1.92872
    A7        0.16453  -0.00002   0.00000   0.00000  -0.00000   0.16453
    A8        1.85659  -0.00000   0.00000  -0.00000  -0.00000   1.85659
    A9        1.91681  -0.00000   0.00000  -0.00000  -0.00000   1.91680
   A10        2.00442  -0.00000   0.00000  -0.00001  -0.00001   2.00441
   A11        1.98570   0.00000   0.00000   0.00000   0.00000   1.98570
   A12        1.86878   0.00000   0.00000   0.00001   0.00001   1.86879
   A13        1.83492  -0.00000   0.00000  -0.00000  -0.00000   1.83492
   A14        2.84144   0.00003   0.00000  -0.00000  -0.00000   2.84144
   A15        2.02426  -0.00000   0.00000  -0.00000  -0.00000   2.02426
   A16        2.02688   0.00000   0.00000   0.00000   0.00000   2.02688
   A17        2.01602   0.00000   0.00000   0.00001   0.00001   2.01603
   A18        3.26956   0.00000   0.00000   0.00016   0.00016   3.26972
   A19        3.32765   0.00000   0.00000   0.00005   0.00005   3.32770
   A20        3.06186   0.00000   0.00000   0.00012   0.00012   3.06197
   A21        3.01845   0.00000   0.00000   0.00021   0.00021   3.01867
   A22        3.20377   0.00000   0.00000   0.00014   0.00014   3.20391
   A23        3.12592   0.00000   0.00000   0.00004   0.00004   3.12596
    D1       -2.38082  -0.00000   0.00000   0.00014   0.00014  -2.38069
    D2        1.82066   0.00000   0.00000   0.00016   0.00016   1.82082
    D3       -0.28278   0.00000   0.00000   0.00015   0.00015  -0.28263
    D4       -0.52208  -0.00000   0.00000  -0.00002  -0.00002  -0.52210
    D5       -2.67828  -0.00000   0.00000  -0.00002  -0.00002  -2.67831
    D6        1.54171  -0.00000   0.00000  -0.00001  -0.00001   1.54170
    D7        2.89578   0.00000   0.00000   0.00014   0.00014   2.89592
    D8       -1.27480   0.00000   0.00000   0.00013   0.00013  -1.27467
    D9        0.74459   0.00001   0.00000   0.00014   0.00014   0.74473
   D10        0.61661   0.00000   0.00000   0.00009   0.00009   0.61669
   D11       -1.46199   0.00000   0.00000   0.00009   0.00009  -1.46190
   D12        2.78200   0.00000   0.00000   0.00007   0.00007   2.78208
   D13        1.54676  -0.00000   0.00000  -0.00007  -0.00007   1.54669
   D14       -2.67951  -0.00000   0.00000  -0.00007  -0.00007  -2.67958
   D15       -0.56200  -0.00000   0.00000  -0.00006  -0.00006  -0.56206
         Item               Value     Threshold  Converged?
 Maximum Force            0.000009     0.000450     YES
 RMS     Force            0.000003     0.000300     YES
 Maximum Displacement     0.000276     0.001800     YES
 RMS     Displacement     0.000107     0.001200     YES
 Predicted change in Energy=-3.247727D-09
 Optimization completed.
    -- Stationary point found.
                           ----------------------------
                           !   Optimized Parameters   !
                           ! (Angstroms and Degrees)  !
 --------------------------                            --------------------------
 ! Name  Definition              Value          Derivative Info.                !
 --------------------------------------------------------------------------------
 ! R1    R(1,3)                  1.9722         -DE/DX =    0.0                 !
 ! R2    R(1,10)                 1.9365         -DE/DX =    0.0                 !
 ! R3    R(1,12)                 1.9372         -DE/DX =    0.0                 !
 ! R4    R(1,14)                 1.9297         -DE/DX =    0.0                 !
 ! R5    R(2,3)                  1.628          -DE/DX =    0.0                 !
 ! R6    R(2,4)                  1.6532         -DE/DX =    0.0                 !
 ! R7    R(2,5)                  1.6618         -DE/DX =    0.0                 !
 ! R8    R(2,6)                  1.6546         -DE/DX =    0.0                 !
 ! R9    R(4,9)                  0.9636         -DE/DX =    0.0                 !
 ! R10   R(5,7)                  0.9635         -DE/DX =    0.0                 !
 ! R11   R(6,8)                  0.9638         -DE/DX =    0.0                 !
 ! R12   R(10,11)                0.9569         -DE/DX =    0.0                 !
 ! R13   R(12,13)                0.9571         -DE/DX =    0.0                 !
 ! R14   R(14,15)                0.9571         -DE/DX =    0.0                 !
 ! A1    A(3,1,10)             108.1944         -DE/DX =    0.0                 !
 ! A2    A(3,1,12)             107.9362         -DE/DX =    0.0                 !
 ! A3    A(3,1,14)             109.793          -DE/DX =    0.0                 !
 ! A4    A(10,1,12)            110.2299         -DE/DX =    0.0                 !
 ! A5    A(10,1,14)            110.1226         -DE/DX =    0.0                 !
 ! A6    A(12,1,14)            110.5061         -DE/DX =    0.0                 !
 ! A7    A(1,2,3)                9.427          -DE/DX =    0.0                 !
 ! A8    A(3,2,4)              106.3747         -DE/DX =    0.0                 !
 ! A9    A(3,2,5)              109.825          -DE/DX =    0.0                 !
 ! A10   A(3,2,6)              114.8448         -DE/DX =    0.0                 !
 ! A11   A(4,2,5)              113.7721         -DE/DX =    0.0                 !
 ! A12   A(4,2,6)              107.0731         -DE/DX =    0.0                 !
 ! A13   A(5,2,6)              105.1331         -DE/DX =    0.0                 !
 ! A14   A(1,3,2)              162.8027         -DE/DX =    0.0                 !
 ! A15   A(2,4,9)              115.9814         -DE/DX =    0.0                 !
 ! A16   A(2,5,7)              116.1317         -DE/DX =    0.0                 !
 ! A17   A(2,6,8)              115.5096         -DE/DX =    0.0                 !
 ! A18   L(1,10,11,8,-1)       187.332          -DE/DX =    0.0                 !
 ! A19   L(1,12,13,7,-1)       190.6603         -DE/DX =    0.0                 !
 ! A20   L(1,14,15,4,-1)       175.4314         -DE/DX =    0.0                 !
 ! A21   L(1,10,11,8,-2)       172.9446         -DE/DX =    0.0                 !
 ! A22   L(1,12,13,7,-2)       183.5624         -DE/DX =    0.0                 !
 ! A23   L(1,14,15,4,-2)       179.1023         -DE/DX =    0.0                 !
 ! D1    D(10,1,3,2)          -136.4111         -DE/DX =    0.0                 !
 ! D2    D(12,1,3,2)           104.3161         -DE/DX =    0.0                 !
 ! D3    D(14,1,3,2)           -16.202          -DE/DX =    0.0                 !
 ! D4    D(4,2,3,1)            -29.9128         -DE/DX =    0.0                 !
 ! D5    D(5,2,3,1)           -153.4544         -DE/DX =    0.0                 !
 ! D6    D(6,2,3,1)             88.3335         -DE/DX =    0.0                 !
 ! D7    D(3,2,4,9)            165.916          -DE/DX =    0.0                 !
 ! D8    D(5,2,4,9)            -73.0407         -DE/DX =    0.0                 !
 ! D9    D(6,2,4,9)             42.6616         -DE/DX =    0.0                 !
 ! D10   D(3,2,5,7)             35.329          -DE/DX =    0.0                 !
 ! D11   D(4,2,5,7)            -83.7659         -DE/DX =    0.0                 !
 ! D12   D(6,2,5,7)            159.397          -DE/DX =    0.0                 !
 ! D13   D(3,2,6,8)             88.6227         -DE/DX =    0.0                 !
 ! D14   D(4,2,6,8)           -153.5249         -DE/DX =    0.0                 !
 ! D15   D(5,2,6,8)            -32.2            -DE/DX =    0.0                 !
 --------------------------------------------------------------------------------
 GradGradGradGradGradGradGradGradGradGradGradGradGradGradGradGradGradGrad

                          Input orientation:                          
 ---------------------------------------------------------------------
 Center     Atomic      Atomic             Coordinates (Angstroms)
 Number     Number       Type             X           Y           Z
 ---------------------------------------------------------------------
      1         40           0        1.378390   -0.013670   -0.010290
      2         14           0       -2.181620   -0.021770    0.013970
      3          8           0       -0.574980   -0.284420    0.016540
      4          8           0       -2.414650    1.448530    0.732890
      5          8           0       -2.958610   -1.273790    0.782310
      6          8           0       -2.870720    0.057340   -1.488240
      7          1           0       -2.496590   -1.663210    1.532810
      8          1           0       -3.165170   -0.784050   -1.854660
      9          1           0       -3.287870    1.840030    0.619880
     10          8           0        2.152390   -1.313120   -1.219600
     11          1           0        2.657510   -1.851050   -1.828870
     12          8           0        2.044020   -0.292070    1.787580
     13          1           0        2.510110   -0.316100    2.623130
     14          8           0        1.781950    1.775200   -0.611100
     15          1           0        1.913990    2.684420   -0.879110
 ---------------------------------------------------------------------
                    Distance matrix (angstroms):
                    1          2          3          4          5
     1  Zr   0.000000
     2  Si   3.560102   0.000000
     3  O    1.972227   1.627969   0.000000
     4  O    4.132493   1.653158   2.626910   0.000000
     5  O    4.585377   1.661810   2.692016   2.776574   0.000000
     6  O    4.499368   1.654615   2.766150   2.660231   2.633444
     7  H    4.485266   2.258408   2.809399   3.213956   0.963515
     8  H    4.963781   2.245043   3.234208   3.499015   2.690004
     9  H    5.060366   2.248825   3.498154   0.963616   3.135390
    10  O    1.936512   4.687528   3.166198   5.683026   5.489218
    11  H    2.884328   5.491767   4.038423   6.570894   6.220313
    12  O    1.937242   4.590728   3.161614   4.901204   5.196215
    13  H    2.882214   5.376493   4.038947   5.562390   5.849161
    14  O    1.929738   4.396556   3.192348   4.418651   5.806104
    15  H    2.884685   4.989497   3.976326   4.781537   6.493841
                    6          7          8          9         10
     6  O    0.000000
     7  H    3.496714   0.000000
     8  H    0.963795   3.562987   0.000000
     9  H    2.792162   3.705706   3.608906   0.000000
    10  O    5.213632   5.413995   5.381418   6.551524   0.000000
    11  H    5.858268   6.156373   5.919692   7.414040   0.956935
    12  O    5.916735   4.749955   6.375235   5.859900   3.177644
    13  H    6.782046   5.298165   7.244197   6.502190   3.986049
    14  O    5.036641   5.892785   5.707031   5.217527   3.169419
    15  H    5.492362   6.646237   6.227347   5.478988   4.019091
                   11         12         13         14         15
    11  H    0.000000
    12  O    3.985662   0.000000
    13  H    4.711486   0.957059   0.000000
    14  O    3.924189   3.177413   3.919693   0.000000
    15  H    4.693118   3.998454   4.650179   0.957050   0.000000
 Stoichiometry    H6O7SiZr
 Framework group  C1[X(H6O7SiZr)]
 Deg. of freedom    39
 Full point group                 C1      NOp   1
 Largest Abelian subgroup         C1      NOp   1
 Largest concise Abelian subgroup C1      NOp   1
                         Standard orientation:                         
 ---------------------------------------------------------------------
 Center     Atomic      Atomic             Coordinates (Angstroms)
 Number     Number       Type             X           Y           Z
 ---------------------------------------------------------------------
      1         40           0        1.378389   -0.013667   -0.010292
      2         14           0       -2.181621   -0.021771    0.013968
      3          8           0       -0.574981   -0.284419    0.016538
      4          8           0       -2.414652    1.448529    0.732888
      5          8           0       -2.958610   -1.273791    0.782308
      6          8           0       -2.870721    0.057339   -1.488242
      7          1           0       -2.496589   -1.663211    1.532808
      8          1           0       -3.165170   -0.784052   -1.854662
      9          1           0       -3.287873    1.840028    0.619878
     10          8           0        2.152390   -1.313116   -1.219602
     11          1           0        2.657511   -1.851046   -1.828872
     12          8           0        2.044019   -0.292066    1.787578
     13          1           0        2.510109   -0.316096    2.623128
     14          8           0        1.781947    1.775203   -0.611102
     15          1           0        1.913986    2.684423   -0.879112
 ---------------------------------------------------------------------
 Rotational constants (GHZ):           1.6308708           0.4761166           0.4734902
 1\1\GINC-GRA1057\FOpt\RB3LYP\Gen\H6O7Si1Zr1\SARASHS\15-Jul-2020\0\\#n 
 B3LYP/Gen Pseudo=cards EmpiricalDispersion=GD3 Opt=modredundant\\Title
 \\0,1\Zr,1.37839,-0.01367,-0.01029\Si,-2.18162,-0.02177,0.01397\O,-0.5
 7498,-0.28442,0.01654\O,-2.41465,1.44853,0.73289\O,-2.95861,-1.27379,0
 .78231\O,-2.87072,0.05734,-1.48824\H,-2.49659,-1.66321,1.53281\H,-3.16
 517,-0.78405,-1.85466\H,-3.28787,1.84003,0.61988\O,2.15239,-1.31312,-1
 .2196\H,2.65751,-1.85105,-1.82887\O,2.04402,-0.29207,1.78758\H,2.51011
 ,-0.3161,2.62313\O,1.78195,1.7752,-0.6111\H,1.91399,2.68442,-0.87911\\
 Version=ES64L-G16RevB.01\State=1-A\HF=-867.1278499\RMSD=2.864e-09\RMSF
 =5.039e-06\Dipole=0.7212051,-0.2244493,0.1144245\Quadrupole=-0.4239388
 ,0.1194053,0.3045335,-0.2630846,-0.0053347,0.4448678\PG=C01 [X(H6O7Si1
 Zr1)]\\@


 ACTORS ARE SO FORTUNATE.  THEY CAN CHOOSE WHETHER
 THEY WILL APPEAR IN A TRAGEDY OR IN COMEDY,
 WHETHER THEY WILL SUFFER OF MAKE MERRY,
 LAUGH OR SHED TEARS.  BUT IN REAL LIFE IT IS DIFFERENT.
 MOST MEN AND WOMEN ARE FORCED TO PERFORM
 PARTS FOR WHICH THEY HAVE NO QUALIFICATIONS.
 THE WORLD IS A STAGE, BUT THE PLAY IS BADLY CAST.

                                   -- OSCAR WILDE
 Job cpu time:       0 days  0 hours 18 minutes 11.0 seconds.
 Elapsed time:       0 days  0 hours  1 minutes 16.7 seconds.
 File lengths (MBytes):  RWF=     42 Int=      0 D2E=      0 Chk=      6 Scr=      1
 Normal termination of Gaussian 16 at Wed Jul 15 14:38:09 2020.
