 Entering Gaussian System, Link 0=g16
 Initial command:
 /opt/software/gaussian/g16.b01/l1.exe "/localscratch/sarashs.33453154.0/Gau-13138.inp" -scrdir="/localscratch/sarashs.33453154.0/"
 Entering Link 1 = /opt/software/gaussian/g16.b01/l1.exe PID=     13140.
  
 Copyright (c) 1988-2017, Gaussian, Inc.  All Rights Reserved.
  
 This is part of the Gaussian(R) 16 program.  It is based on
 the Gaussian(R) 09 system (copyright 2009, Gaussian, Inc.),
 the Gaussian(R) 03 system (copyright 2003, Gaussian, Inc.),
 the Gaussian(R) 98 system (copyright 1998, Gaussian, Inc.),
 the Gaussian(R) 94 system (copyright 1995, Gaussian, Inc.),
 the Gaussian 92(TM) system (copyright 1992, Gaussian, Inc.),
 the Gaussian 90(TM) system (copyright 1990, Gaussian, Inc.),
 the Gaussian 88(TM) system (copyright 1988, Gaussian, Inc.),
 the Gaussian 86(TM) system (copyright 1986, Carnegie Mellon
 University), and the Gaussian 82(TM) system (copyright 1983,
 Carnegie Mellon University). Gaussian is a federally registered
 trademark of Gaussian, Inc.
  
 This software contains proprietary and confidential information,
 including trade secrets, belonging to Gaussian, Inc.
  
 This software is provided under written license and may be
 used, copied, transmitted, or stored only in accord with that
 written license.
  
 The following legend is applicable only to US Government
 contracts under FAR:
  
                    RESTRICTED RIGHTS LEGEND
  
 Use, reproduction and disclosure by the US Government is
 subject to restrictions as set forth in subparagraphs (a)
 and (c) of the Commercial Computer Software - Restricted
 Rights clause in FAR 52.227-19.
  
 Gaussian, Inc.
 340 Quinnipiac St., Bldg. 40, Wallingford CT 06492
  
  
 ---------------------------------------------------------------
 Warning -- This program may not be used in any manner that
 competes with the business of Gaussian, Inc. or will provide
 assistance to any competitor of Gaussian, Inc.  The licensee
 of this program is prohibited from giving any competitor of
 Gaussian, Inc. access to this program.  By using this program,
 the user acknowledges that Gaussian, Inc. is engaged in the
 business of creating and licensing software in the field of
 computational chemistry and represents and warrants to the
 licensee that it is not a competitor of Gaussian, Inc. and that
 it will not use this program in any manner prohibited above.
 ---------------------------------------------------------------
  

 Cite this work as:
 Gaussian 16, Revision B.01,
 M. J. Frisch, G. W. Trucks, H. B. Schlegel, G. E. Scuseria, 
 M. A. Robb, J. R. Cheeseman, G. Scalmani, V. Barone, 
 G. A. Petersson, H. Nakatsuji, X. Li, M. Caricato, A. V. Marenich, 
 J. Bloino, B. G. Janesko, R. Gomperts, B. Mennucci, H. P. Hratchian, 
 J. V. Ortiz, A. F. Izmaylov, J. L. Sonnenberg, D. Williams-Young, 
 F. Ding, F. Lipparini, F. Egidi, J. Goings, B. Peng, A. Petrone, 
 T. Henderson, D. Ranasinghe, V. G. Zakrzewski, J. Gao, N. Rega, 
 G. Zheng, W. Liang, M. Hada, M. Ehara, K. Toyota, R. Fukuda, 
 J. Hasegawa, M. Ishida, T. Nakajima, Y. Honda, O. Kitao, H. Nakai, 
 T. Vreven, K. Throssell, J. A. Montgomery, Jr., J. E. Peralta, 
 F. Ogliaro, M. J. Bearpark, J. J. Heyd, E. N. Brothers, K. N. Kudin, 
 V. N. Staroverov, T. A. Keith, R. Kobayashi, J. Normand, 
 K. Raghavachari, A. P. Rendell, J. C. Burant, S. S. Iyengar, 
 J. Tomasi, M. Cossi, J. M. Millam, M. Klene, C. Adamo, R. Cammi, 
 J. W. Ochterski, R. L. Martin, K. Morokuma, O. Farkas, 
 J. B. Foresman, and D. J. Fox, Gaussian, Inc., Wallingford CT, 2016.
 
 ******************************************
 Gaussian 16:  ES64L-G16RevB.01 20-Dec-2017
                24-Jun-2020 
 ******************************************
 %NProcShared=16
 Will use up to   16 processors via shared memory.
 ------------------------------------------
 #n B3LYP/GEN PSEUDO=READ Opt(modredundant)
 ------------------------------------------
 1/18=120,19=15,26=3,38=1/1,3;
 2/9=110,12=2,17=6,18=5,40=1/2;
 3/5=7,11=2,16=1,17=8,25=1,30=1,71=1,74=-5/1,2,3;
 4//1;
 5/5=2,38=5/2;
 6/7=2,8=2,9=2,10=2,28=1/1;
 7//1,2,3,16;
 1/18=20,19=15,26=3/3(2);
 2/9=110/2;
 99//99;
 2/9=110/2;
 3/5=7,6=1,11=2,16=1,17=8,25=1,30=1,71=1,74=-5,82=7/1,2,3;
 4/5=5,16=3,69=1/1;
 5/5=2,38=5/2;
 7//1,2,3,16;
 1/18=20,19=15,26=3/3(-5);
 2/9=110/2;
 6/7=2,8=2,9=2,10=2,19=2,28=1/1;
 99/9=1/99;
 -----
 Title
 -----
 Symbolic Z-matrix:
 Charge =  0 Multiplicity = 1
 Si                   -1.90698  -0.04093  -0.13187 
 O                    -2.77661   1.33183  -0.36828 
 O                    -2.96472  -1.30138  -0.09409 
 O                    -0.62539  -0.3216   -1.09659 
 Zr                    0.92912   0.00574   0.20016 
 H                    -3.57833   1.23701  -0.89318 
 H                    -2.59505  -2.1428   -0.38501 
 O                    -1.07346   0.19403   1.32035 
 H                    -1.20745   1.04108   1.76425 
 O                     1.18638  -1.46512   1.48312 
 H                     0.8088   -1.64239   2.3505 
 O                     0.91648   1.8096    1.02257 
 H                     1.58086   2.50114   0.92701 
 O                     2.53467  -0.0304   -0.91468 
 H                     3.35202  -0.51673  -1.04941 
 
 The following ModRedundant input section has been read:
 A       1       4       5 F                                                   
 

 GradGradGradGradGradGradGradGradGradGradGradGradGradGradGradGradGradGrad
 Berny optimization.
 Initialization pass.
                           ----------------------------
                           !    Initial Parameters    !
                           ! (Angstroms and Degrees)  !
 --------------------------                            --------------------------
 ! Name  Definition              Value          Derivative Info.                !
 --------------------------------------------------------------------------------
 ! R1    R(1,2)                  1.6421         estimate D2E/DX2                !
 ! R2    R(1,3)                  1.6459         estimate D2E/DX2                !
 ! R3    R(1,4)                  1.6285         estimate D2E/DX2                !
 ! R4    R(1,5)                  2.8559         estimate D2E/DX2                !
 ! R5    R(1,8)                  1.6908         estimate D2E/DX2                !
 ! R6    R(2,6)                  0.9629         estimate D2E/DX2                !
 ! R7    R(3,7)                  0.964          estimate D2E/DX2                !
 ! R8    R(4,5)                  2.0507         estimate D2E/DX2                !
 ! R9    R(5,8)                  2.3023         estimate D2E/DX2                !
 ! R10   R(5,10)                 1.9687         estimate D2E/DX2                !
 ! R11   R(5,12)                 1.9825         estimate D2E/DX2                !
 ! R12   R(5,14)                 1.955          estimate D2E/DX2                !
 ! R13   R(8,9)                  0.9657         estimate D2E/DX2                !
 ! R14   R(10,11)                0.9625         estimate D2E/DX2                !
 ! R15   R(12,13)                0.9637         estimate D2E/DX2                !
 ! R16   R(14,15)                0.9606         estimate D2E/DX2                !
 ! A1    A(2,1,3)              107.6477         estimate D2E/DX2                !
 ! A2    A(2,1,4)              118.3958         estimate D2E/DX2                !
 ! A3    A(2,1,5)              121.937          estimate D2E/DX2                !
 ! A4    A(2,1,8)              105.5776         estimate D2E/DX2                !
 ! A5    A(3,1,4)              112.7909         estimate D2E/DX2                !
 ! A6    A(3,1,5)              130.3951         estimate D2E/DX2                !
 ! A7    A(3,1,8)              113.7977         estimate D2E/DX2                !
 ! A8    A(4,1,8)               98.3257         estimate D2E/DX2                !
 ! A9    A(1,2,6)              115.9167         estimate D2E/DX2                !
 ! A10   A(1,3,7)              114.5237         estimate D2E/DX2                !
 ! A11   A(1,4,5)              101.2128         Frozen                          !
 ! A12   A(1,5,10)             101.1473         estimate D2E/DX2                !
 ! A13   A(1,5,12)              93.2542         estimate D2E/DX2                !
 ! A14   A(1,5,14)             138.5019         estimate D2E/DX2                !
 ! A15   A(4,5,8)               70.2061         estimate D2E/DX2                !
 ! A16   A(4,5,10)             113.0728         estimate D2E/DX2                !
 ! A17   A(4,5,12)             113.7488         estimate D2E/DX2                !
 ! A18   A(4,5,14)             105.0109         estimate D2E/DX2                !
 ! A19   A(8,5,10)              81.8183         estimate D2E/DX2                !
 ! A20   A(8,5,12)              73.6327         estimate D2E/DX2                !
 ! A21   A(10,5,12)            114.2235         estimate D2E/DX2                !
 ! A22   A(10,5,14)            104.5071         estimate D2E/DX2                !
 ! A23   A(12,5,14)            104.9878         estimate D2E/DX2                !
 ! A24   A(1,8,9)              116.6352         estimate D2E/DX2                !
 ! A25   A(5,8,9)              114.588          estimate D2E/DX2                !
 ! A26   A(5,10,11)            132.3499         estimate D2E/DX2                !
 ! A27   A(5,12,13)            127.3999         estimate D2E/DX2                !
 ! A28   A(5,14,15)            142.012          estimate D2E/DX2                !
 ! A29   L(8,5,14,4,-1)        175.217          estimate D2E/DX2                !
 ! A30   L(8,5,14,4,-2)        175.1883         estimate D2E/DX2                !
 ! D1    D(3,1,2,6)            -31.5445         estimate D2E/DX2                !
 ! D2    D(4,1,2,6)             97.8074         estimate D2E/DX2                !
 ! D3    D(5,1,2,6)            149.9357         estimate D2E/DX2                !
 ! D4    D(8,1,2,6)           -153.4334         estimate D2E/DX2                !
 ! D5    D(2,1,3,7)            151.7162         estimate D2E/DX2                !
 ! D6    D(4,1,3,7)             19.2636         estimate D2E/DX2                !
 ! D7    D(5,1,3,7)            -29.9332         estimate D2E/DX2                !
 ! D8    D(8,1,3,7)            -91.6497         estimate D2E/DX2                !
 ! D9    D(2,1,5,10)           145.3968         estimate D2E/DX2                !
 ! D10   D(2,1,5,12)            29.9249         estimate D2E/DX2                !
 ! D11   D(2,1,5,14)           -87.1533         estimate D2E/DX2                !
 ! D12   D(3,1,5,10)           -32.751          estimate D2E/DX2                !
 ! D13   D(3,1,5,12)          -148.2228         estimate D2E/DX2                !
 ! D14   D(3,1,5,14)            94.6989         estimate D2E/DX2                !
 ! D15   D(2,1,8,9)             -0.7356         estimate D2E/DX2                !
 ! D16   D(3,1,8,9)           -118.5698         estimate D2E/DX2                !
 ! D17   D(4,1,8,9)            121.931          estimate D2E/DX2                !
 ! D18   D(4,5,8,9)           -123.0347         estimate D2E/DX2                !
 ! D19   D(10,5,8,9)           118.7661         estimate D2E/DX2                !
 ! D20   D(12,5,8,9)             0.4555         estimate D2E/DX2                !
 ! D21   D(9,8,14,15)          124.3017         estimate D2E/DX2                !
 ! D22   D(1,5,10,11)          -54.7911         estimate D2E/DX2                !
 ! D23   D(4,5,10,11)          -88.2376         estimate D2E/DX2                !
 ! D24   D(8,5,10,11)          -23.9028         estimate D2E/DX2                !
 ! D25   D(12,5,10,11)          43.9576         estimate D2E/DX2                !
 ! D26   D(14,5,10,11)         158.1207         estimate D2E/DX2                !
 ! D27   D(1,5,12,13)         -145.0811         estimate D2E/DX2                !
 ! D28   D(4,5,12,13)         -116.9745         estimate D2E/DX2                !
 ! D29   D(8,5,12,13)         -175.9895         estimate D2E/DX2                !
 ! D30   D(10,5,12,13)         111.1549         estimate D2E/DX2                !
 ! D31   D(14,5,12,13)          -2.7243         estimate D2E/DX2                !
 ! D32   D(1,5,14,15)         -124.3511         estimate D2E/DX2                !
 ! D33   D(4,5,14,15)         -117.1604         estimate D2E/DX2                !
 ! D34   D(10,5,14,15)           2.0812         estimate D2E/DX2                !
 ! D35   D(12,5,14,15)         122.6125         estimate D2E/DX2                !
 --------------------------------------------------------------------------------
 Trust Radius=3.00D-01 FncErr=1.00D-07 GrdErr=1.00D-06 EigMax=2.50D+02 EigMin=1.00D-04
 Number of steps in this run=     91 maximum allowed number of steps=    100.
 GradGradGradGradGradGradGradGradGradGradGradGradGradGradGradGradGradGrad

                          Input orientation:                          
 ---------------------------------------------------------------------
 Center     Atomic      Atomic             Coordinates (Angstroms)
 Number     Number       Type             X           Y           Z
 ---------------------------------------------------------------------
      1         14           0       -1.906980   -0.040930   -0.131870
      2          8           0       -2.776610    1.331830   -0.368280
      3          8           0       -2.964720   -1.301380   -0.094090
      4          8           0       -0.625390   -0.321600   -1.096590
      5         40           0        0.929120    0.005740    0.200160
      6          1           0       -3.578330    1.237010   -0.893180
      7          1           0       -2.595050   -2.142800   -0.385010
      8          8           0       -1.073460    0.194030    1.320350
      9          1           0       -1.207450    1.041080    1.764250
     10          8           0        1.186380   -1.465120    1.483120
     11          1           0        0.808800   -1.642390    2.350500
     12          8           0        0.916480    1.809600    1.022570
     13          1           0        1.580860    2.501140    0.927010
     14          8           0        2.534670   -0.030400   -0.914680
     15          1           0        3.352020   -0.516730   -1.049410
 ---------------------------------------------------------------------
                    Distance matrix (angstroms):
                    1          2          3          4          5
     1  Si   0.000000
     2  O    1.642138   0.000000
     3  O    1.645897   2.654121   0.000000
     4  O    1.628476   2.809273   2.727167   0.000000
     5  Zr   2.855851   3.976691   4.117904   2.050662   0.000000
     6  H    2.237439   0.962946   2.731023   3.345220   4.798804
     7  H    2.226068   3.479411   0.963991   2.775370   4.168743
     8  O    1.690830   2.654577   2.795310   2.511621   2.302304
     9  H    2.292457   2.663547   3.468219   3.221816   2.843104
    10  O    3.769003   5.191907   4.443651   3.353364   1.968654
    11  H    4.012767   5.393785   4.509075   3.960280   2.711968
    12  O    3.567789   3.975128   5.097925   3.377901   1.982531
    13  H    4.443914   4.693890   6.013660   4.114652   2.679570
    14  O    4.510117   5.510347   5.703687   3.178658   1.954985
    15  H    5.359603   6.437485   6.436576   3.982473   2.775760
                    6          7          8          9         10
     6  H    0.000000
     7  H    3.556430   0.000000
     8  O    3.501699   3.268679   0.000000
     9  H    3.566706   4.084341   0.965657   0.000000
    10  O    5.970827   4.271811   2.808229   3.477139   0.000000
    11  H    6.169223   4.395409   2.824279   3.407340   0.962465
    12  O    4.919479   5.471160   2.580426   2.377350   3.317943
    13  H    5.615012   6.381677   3.538769   3.256903   4.024437
    14  O    6.243041   5.572864   4.250215   4.725272   3.102540
    15  H    7.150508   6.201062   5.070090   5.579626   3.464556
                   11         12         13         14         15
    11  H    0.000000
    12  O    3.700166   0.000000
    13  H    4.448735   0.963722   0.000000
    14  O    4.029707   3.123632   3.272655   0.000000
    15  H    4.392547   3.954335   4.018804   0.960588   0.000000
 Stoichiometry    H6O7SiZr
 Framework group  C1[X(H6O7SiZr)]
 Deg. of freedom    39
 Full point group                 C1      NOp   1
 Largest Abelian subgroup         C1      NOp   1
 Largest concise Abelian subgroup C1      NOp   1
                         Standard orientation:                         
 ---------------------------------------------------------------------
 Center     Atomic      Atomic             Coordinates (Angstroms)
 Number     Number       Type             X           Y           Z
 ---------------------------------------------------------------------
      1         14           0       -1.809376   -0.038817   -0.149216
      2          8           0       -2.683330    1.343735   -0.295413
      3          8           0       -2.871586   -1.290963   -0.036008
      4          8           0       -0.616835   -0.318299   -1.222375
      5         40           0        1.044972   -0.019274   -0.058677
      6          1           0       -3.527509    1.261778   -0.751385
      7          1           0       -2.535630   -2.131808   -0.366752
      8          8           0       -0.853592    0.171847    1.229552
      9          1           0       -0.941702    1.014559    1.692766
     10          8           0        1.396642   -1.507514    1.181108
     11          1           0        1.092373   -1.692124    2.075356
     12          8           0        1.118620    1.774603    0.782163
     13          1           0        1.778800    2.461802    0.638358
     14          8           0        2.549799   -0.055087   -1.306147
     15          1           0        3.348296   -0.546409   -1.515273
 ---------------------------------------------------------------------
 Rotational constants (GHZ):           1.7956954           0.6603729           0.6271433
 General basis read from cards:  (5D, 7F)
 ======================================================================================================
                                       Pseudopotential Parameters
 ======================================================================================================
  Center     Atomic      Valence      Angular      Power
  Number     Number     Electrons     Momentum     of R      Exponent        Coefficient   SO-Coeffient
 ======================================================================================================
    1         14
                                   No pseudopotential on this center.
    2          8
                                   No pseudopotential on this center.
    3          8
                                   No pseudopotential on this center.
    4          8
                                   No pseudopotential on this center.
    5         40           12
                                      F and up 
                                                     0      645.9321873       -0.04258430    0.00000000
                                                     1      134.7547401      -20.22224090    0.00000000
                                                     2       42.3074619     -101.86951720    0.00000000
                                                     2       12.0003227      -41.61957840    0.00000000
                                                     2        4.1260454       -4.69861600    0.00000000
                                      S - F
                                                     0      117.6251862        2.79105590    0.00000000
                                                     1       22.9646089       41.94894590    0.00000000
                                                     2        4.5225298       67.72718660    0.00000000
                                      P - F
                                                     0       47.1953145        4.99111440    0.00000000
                                                     1       48.0356033       20.71931720    0.00000000
                                                     2       19.4541456      195.58677580    0.00000000
                                                     2        4.0512875       48.28771760    0.00000000
                                      D - F
                                                     0       79.9073983        3.00492260    0.00000000
                                                     1       45.8263798       25.93779890    0.00000000
                                                     2       26.9903522      125.12449340    0.00000000
                                                     2        9.6835718       70.76340220    0.00000000
                                                     2        2.7995666       15.04928220    0.00000000
    6          1
                                   No pseudopotential on this center.
    7          1
                                   No pseudopotential on this center.
    8          8
                                   No pseudopotential on this center.
    9          1
                                   No pseudopotential on this center.
   10          8
                                   No pseudopotential on this center.
   11          1
                                   No pseudopotential on this center.
   12          8
                                   No pseudopotential on this center.
   13          1
                                   No pseudopotential on this center.
   14          8
                                   No pseudopotential on this center.
   15          1
                                   No pseudopotential on this center.
 ======================================================================================================
 There are   178 symmetry adapted cartesian basis functions of A   symmetry.
 There are   168 symmetry adapted basis functions of A   symmetry.
   168 basis functions,   339 primitive gaussians,   178 cartesian basis functions
    44 alpha electrons       44 beta electrons
       nuclear repulsion energy       676.3934585713 Hartrees.
 NAtoms=   15 NActive=   15 NUniq=   15 SFac= 1.00D+00 NAtFMM=   60 NAOKFM=F Big=F
 Integral buffers will be    131072 words long.
 Raffenetti 2 integral format.
 Two-electron integral symmetry is turned on.
 One-electron integrals computed using PRISM.
   1 Symmetry operations used in ECPInt.
 ECPInt:  NShTT=    1770 NPrTT=   10201 LenC2=    1675 LenP2D=    6834.
 LDataN:  DoStor=T MaxTD1= 5 Len=  102
 NBasis=   168 RedAO= T EigKep=  7.00D-03  NBF=   168
 NBsUse=   168 1.00D-06 EigRej= -1.00D+00 NBFU=   168
 Defaulting to unpruned grid for atomic number  40.
 ExpMin= 2.43D-02 ExpMax= 1.61D+04 ExpMxC= 2.43D+03 IAcc=3 IRadAn=         5 AccDes= 0.00D+00
 Harris functional with IExCor=  402 and IRadAn=       5 diagonalized for initial guess.
 HarFok:  IExCor=  402 AccDes= 0.00D+00 IRadAn=         5 IDoV= 1 UseB2=F ITyADJ=14
 ICtDFT=  3500011 ScaDFX=  1.000000  1.000000  1.000000  1.000000
 Defaulting to unpruned grid for atomic number  40.
 FoFCou: FMM=F IPFlag=           0 FMFlag=      100000 FMFlg1=           0
         NFxFlg=           0 DoJE=T BraDBF=F KetDBF=T FulRan=T
         wScrn=  0.000000 ICntrl=       500 IOpCl=  0 I1Cent=   200000004 NGrid=           0
         NMat0=    1 NMatS0=      1 NMatT0=    0 NMatD0=    1 NMtDS0=    0 NMtDT0=    0
 Petite list used in FoFCou.
 Requested convergence on RMS density matrix=1.00D-08 within 128 cycles.
 Requested convergence on MAX density matrix=1.00D-06.
 Requested convergence on             energy=1.00D-06.
 No special actions if energy rises.
 Defaulting to unpruned grid for atomic number  40.
 Defaulting to unpruned grid for atomic number  40.
 Defaulting to unpruned grid for atomic number  40.
 Defaulting to unpruned grid for atomic number  40.
 Defaulting to unpruned grid for atomic number  40.
 Defaulting to unpruned grid for atomic number  40.
 Defaulting to unpruned grid for atomic number  40.
 Defaulting to unpruned grid for atomic number  40.
 Defaulting to unpruned grid for atomic number  40.
 Defaulting to unpruned grid for atomic number  40.
 Defaulting to unpruned grid for atomic number  40.
 Defaulting to unpruned grid for atomic number  40.
 Defaulting to unpruned grid for atomic number  40.
 Defaulting to unpruned grid for atomic number  40.
 Defaulting to unpruned grid for atomic number  40.
 Defaulting to unpruned grid for atomic number  40.
 SCF Done:  E(RB3LYP) =  -866.682238634     A.U. after   15 cycles
            NFock= 15  Conv=0.21D-08     -V/T= 2.0443

 **********************************************************************

            Population analysis using the SCF Density.

 **********************************************************************

 Orbital symmetries:
       Occupied  (A) (A) (A) (A) (A) (A) (A) (A) (A) (A) (A) (A)
                 (A) (A) (A) (A) (A) (A) (A) (A) (A) (A) (A) (A)
                 (A) (A) (A) (A) (A) (A) (A) (A) (A) (A) (A) (A)
                 (A) (A) (A) (A) (A) (A) (A) (A)
       Virtual   (A) (A) (A) (A) (A) (A) (A) (A) (A) (A) (A) (A)
                 (A) (A) (A) (A) (A) (A) (A) (A) (A) (A) (A) (A)
                 (A) (A) (A) (A) (A) (A) (A) (A) (A) (A) (A) (A)
                 (A) (A) (A) (A) (A) (A) (A) (A) (A) (A) (A) (A)
                 (A) (A) (A) (A) (A) (A) (A) (A) (A) (A) (A) (A)
                 (A) (A) (A) (A) (A) (A) (A) (A) (A) (A) (A) (A)
                 (A) (A) (A) (A) (A) (A) (A) (A) (A) (A) (A) (A)
                 (A) (A) (A) (A) (A) (A) (A) (A) (A) (A) (A) (A)
                 (A) (A) (A) (A) (A) (A) (A) (A) (A) (A) (A) (A)
                 (A) (A) (A) (A) (A) (A) (A) (A) (A) (A) (A) (A)
                 (A) (A) (A) (A)
 The electronic state is 1-A.
 Alpha  occ. eigenvalues --  -66.20357 -19.18084 -19.15811 -19.15775 -19.12841
 Alpha  occ. eigenvalues --  -19.12756 -19.12631 -19.12508  -5.34779  -3.70789
 Alpha  occ. eigenvalues --   -3.70692  -3.70622  -2.05042  -1.26103  -1.25692
 Alpha  occ. eigenvalues --   -1.25360  -1.04784  -1.01820  -1.00413  -0.94842
 Alpha  occ. eigenvalues --   -0.93978  -0.93592  -0.93345  -0.59049  -0.54730
 Alpha  occ. eigenvalues --   -0.52813  -0.47925  -0.46982  -0.46213  -0.43410
 Alpha  occ. eigenvalues --   -0.41531  -0.40597  -0.38380  -0.36441  -0.34949
 Alpha  occ. eigenvalues --   -0.34574  -0.33813  -0.32991  -0.32714  -0.31416
 Alpha  occ. eigenvalues --   -0.30603  -0.30363  -0.29785  -0.29425
 Alpha virt. eigenvalues --   -0.01242  -0.00680  -0.00499   0.00737   0.01636
 Alpha virt. eigenvalues --    0.02393   0.03461   0.03618   0.06474   0.08171
 Alpha virt. eigenvalues --    0.09527   0.13626   0.14416   0.15435   0.16151
 Alpha virt. eigenvalues --    0.16974   0.17827   0.18725   0.19507   0.23471
 Alpha virt. eigenvalues --    0.23937   0.24717   0.25275   0.26141   0.28825
 Alpha virt. eigenvalues --    0.30953   0.31695   0.33455   0.36951   0.39032
 Alpha virt. eigenvalues --    0.42119   0.55104   0.61624   0.75131   0.78829
 Alpha virt. eigenvalues --    0.80205   0.84421   0.86822   0.87680   0.89206
 Alpha virt. eigenvalues --    0.90412   0.90617   0.91529   0.94430   0.94900
 Alpha virt. eigenvalues --    0.96366   0.97793   1.00358   1.02686   1.03221
 Alpha virt. eigenvalues --    1.06792   1.07944   1.09294   1.10655   1.12025
 Alpha virt. eigenvalues --    1.12440   1.15999   1.17653   1.19101   1.21360
 Alpha virt. eigenvalues --    1.25100   1.26503   1.34115   1.42849   1.46341
 Alpha virt. eigenvalues --    1.48400   1.48669   1.54368   1.55022   1.55298
 Alpha virt. eigenvalues --    1.57552   1.58010   1.59569   1.61244   1.63298
 Alpha virt. eigenvalues --    1.64415   1.65123   1.68118   1.70284   1.71616
 Alpha virt. eigenvalues --    1.74076   1.74953   1.80037   1.80954   1.82364
 Alpha virt. eigenvalues --    1.83018   1.83662   1.85052   1.87521   1.88963
 Alpha virt. eigenvalues --    1.91331   1.92242   2.00409   2.07918   2.13140
 Alpha virt. eigenvalues --    2.34259   2.35288   2.36046   2.38279   2.39038
 Alpha virt. eigenvalues --    2.40779   2.43040   2.55272   2.58699   2.61104
 Alpha virt. eigenvalues --    2.62790   2.63440   2.64826   2.64952   2.65113
 Alpha virt. eigenvalues --    2.65606   2.65826   2.66378   2.66709   2.71353
 Alpha virt. eigenvalues --    2.76942   2.81398   3.40823   3.42007   3.43448
 Alpha virt. eigenvalues --    3.43942   3.45820   3.47627   4.98070
          Condensed to atoms (all electrons):
               1          2          3          4          5          6
     1  Si  11.574970   0.385741   0.390215   0.339232  -0.102961  -0.022056
     2  O    0.385741   7.949673  -0.020111  -0.010727   0.008136   0.304614
     3  O    0.390215  -0.020111   7.947109  -0.017114   0.003376  -0.000910
     4  O    0.339232  -0.010727  -0.017114   8.257657   0.193649  -0.000301
     5  Zr  -0.102961   0.008136   0.003376   0.193649   9.832980  -0.000908
     6  H   -0.022056   0.304614  -0.000910  -0.000301  -0.000908   0.377466
     7  H   -0.017047   0.000377   0.301659   0.001207  -0.003409  -0.000051
     8  O    0.258846  -0.018172  -0.012251  -0.037384   0.052232   0.000608
     9  H   -0.009612   0.001312  -0.000305   0.000415  -0.007362  -0.000016
    10  O   -0.009566  -0.000000  -0.000006   0.000066   0.233512   0.000000
    11  H    0.000074  -0.000000  -0.000005  -0.000094  -0.018389   0.000000
    12  O   -0.013141  -0.000015  -0.000000   0.000195   0.230907   0.000001
    13  H    0.000679  -0.000003   0.000000  -0.000022  -0.017198   0.000000
    14  O   -0.001752   0.000000  -0.000000   0.000702   0.210719   0.000000
    15  H    0.000052  -0.000000   0.000000  -0.000062  -0.014935  -0.000000
               7          8          9         10         11         12
     1  Si  -0.017047   0.258846  -0.009612  -0.009566   0.000074  -0.013141
     2  O    0.000377  -0.018172   0.001312  -0.000000  -0.000000  -0.000015
     3  O    0.301659  -0.012251  -0.000305  -0.000006  -0.000005  -0.000000
     4  O    0.001207  -0.037384   0.000415   0.000066  -0.000094   0.000195
     5  Zr  -0.003409   0.052232  -0.007362   0.233512  -0.018389   0.230907
     6  H   -0.000051   0.000608  -0.000016   0.000000   0.000000   0.000001
     7  H    0.380744  -0.000143   0.000054  -0.000010  -0.000001  -0.000000
     8  O   -0.000143   8.144273   0.299288  -0.009260  -0.001240  -0.018296
     9  H    0.000054   0.299288   0.336234  -0.000341  -0.000105   0.004245
    10  O   -0.000010  -0.009260  -0.000341   8.175598   0.295147   0.000634
    11  H   -0.000001  -0.001240  -0.000105   0.295147   0.396447  -0.000324
    12  O   -0.000000  -0.018296   0.004245   0.000634  -0.000324   8.211497
    13  H    0.000000   0.000676  -0.000057  -0.000068  -0.000000   0.292061
    14  O   -0.000000  -0.000254   0.000015   0.000933   0.000019   0.000621
    15  H    0.000000   0.000003  -0.000000  -0.000466   0.000001  -0.000086
              13         14         15
     1  Si   0.000679  -0.001752   0.000052
     2  O   -0.000003   0.000000  -0.000000
     3  O    0.000000  -0.000000   0.000000
     4  O   -0.000022   0.000702  -0.000062
     5  Zr  -0.017198   0.210719  -0.014935
     6  H    0.000000   0.000000  -0.000000
     7  H    0.000000  -0.000000   0.000000
     8  O    0.000676  -0.000254   0.000003
     9  H   -0.000057   0.000015  -0.000000
    10  O   -0.000068   0.000933  -0.000466
    11  H   -0.000000   0.000019   0.000001
    12  O    0.292061   0.000621  -0.000086
    13  H    0.398890  -0.001466   0.000008
    14  O   -0.001466   8.185442   0.296787
    15  H    0.000008   0.296787   0.388984
 Mulliken charges:
               1
     1  Si   1.226323
     2  O   -0.600825
     3  O   -0.591658
     4  O   -0.727419
     5  Zr   1.399650
     6  H    0.341553
     7  H    0.336621
     8  O   -0.658925
     9  H    0.376236
    10  O   -0.686173
    11  H    0.328470
    12  O   -0.708298
    13  H    0.326500
    14  O   -0.691766
    15  H    0.329713
 Sum of Mulliken charges =  -0.00000
 Mulliken charges with hydrogens summed into heavy atoms:
               1
     1  Si   1.226323
     2  O   -0.259272
     3  O   -0.255037
     4  O   -0.727419
     5  Zr   1.399650
     8  O   -0.282690
    10  O   -0.357703
    12  O   -0.381798
    14  O   -0.362054
 Electronic spatial extent (au):  <R**2>=           1790.7760
 Charge=             -0.0000 electrons
 Dipole moment (field-independent basis, Debye):
    X=             -0.4535    Y=             -0.1012    Z=              0.9365  Tot=              1.0454
 Quadrupole moment (field-independent basis, Debye-Ang):
   XX=            -64.7048   YY=            -69.5683   ZZ=            -72.7858
   XY=              1.2830   XZ=              1.7321   YZ=              1.5362
 Traceless Quadrupole moment (field-independent basis, Debye-Ang):
   XX=              4.3149   YY=             -0.5487   ZZ=             -3.7662
   XY=              1.2830   XZ=              1.7321   YZ=              1.5362
 Octapole moment (field-independent basis, Debye-Ang**2):
  XXX=             32.2200  YYY=             -3.8389  ZZZ=             20.2096  XYY=              7.4784
  XXY=             11.7152  XXZ=            -26.5157  XZZ=              6.6546  YZZ=             -4.3096
  YYZ=             -0.5338  XYZ=              4.2216
 Hexadecapole moment (field-independent basis, Debye-Ang**3):
 XXXX=          -1208.2322 YYYY=           -374.1671 ZZZZ=           -316.1090 XXXY=            -75.5361
 XXXZ=             17.1846 YYYX=             75.2253 YYYZ=              9.2322 ZZZX=              0.7689
 ZZZY=            -13.4724 XXYY=           -267.0091 XXZZ=           -263.0257 YYZZ=           -110.3513
 XXYZ=             22.9219 YYXZ=              8.7452 ZZXY=            -25.1743
 N-N= 6.763934585713D+02 E-N=-3.389054673568D+03  KE= 8.299460996272D+02
   1 Symmetry operations used in ECPInt.
 ECPInt:  NShTT=    1770 NPrTT=   10201 LenC2=    1675 LenP2D=    6834.
 LDataN:  DoStor=T MaxTD1= 6 Len=  172
 Calling FoFJK, ICntrl=      2127 FMM=F ISym2X=0 I1Cent= 0 IOpClX= 0 NMat=1 NMatS=1 NMatT=0.
 Defaulting to unpruned grid for atomic number  40.
 Defaulting to unpruned grid for atomic number  40.
 Defaulting to unpruned grid for atomic number  40.
 Defaulting to unpruned grid for atomic number  40.
 Defaulting to unpruned grid for atomic number  40.
 Defaulting to unpruned grid for atomic number  40.
 Defaulting to unpruned grid for atomic number  40.
 Defaulting to unpruned grid for atomic number  40.
 Defaulting to unpruned grid for atomic number  40.
 Defaulting to unpruned grid for atomic number  40.
 Defaulting to unpruned grid for atomic number  40.
 Defaulting to unpruned grid for atomic number  40.
 Defaulting to unpruned grid for atomic number  40.
 Defaulting to unpruned grid for atomic number  40.
 Defaulting to unpruned grid for atomic number  40.
 Defaulting to unpruned grid for atomic number  40.
 ***** Axes restored to original set *****
 -------------------------------------------------------------------
 Center     Atomic                   Forces (Hartrees/Bohr)
 Number     Number              X              Y              Z
 -------------------------------------------------------------------
      1       14          -0.015557683   -0.002593573   -0.012007800
      2        8           0.000979645   -0.000634865    0.001528090
      3        8           0.000338210    0.000791693    0.001141565
      4        8          -0.004784504    0.001364137    0.006673325
      5       40           0.024291701   -0.003423263   -0.001382463
      6        1          -0.000069718   -0.000146214    0.000066376
      7        1           0.000085241   -0.000136233   -0.000079786
      8        8          -0.017930745   -0.001705302    0.005845174
      9        1           0.001361073    0.002338950    0.000785946
     10        8           0.003789602   -0.003753889   -0.000434726
     11        1          -0.000287581    0.000877818   -0.000793537
     12        8           0.002914231    0.008111717    0.001746174
     13        1           0.000661865   -0.000563926   -0.000667998
     14        8           0.003879085   -0.001405184   -0.001552375
     15        1           0.000329578    0.000878132   -0.000867966
 -------------------------------------------------------------------
 Cartesian Forces:  Max     0.024291701 RMS     0.005902962

 GradGradGradGradGradGradGradGradGradGradGradGradGradGradGradGradGradGrad
 Berny optimization.
 FormGI is forming the generalized inverse of G from B-inverse, IUseBI=4.
 Internal  Forces:  Max     0.017125005 RMS     0.003227849
 Search for a local minimum.
 Step number   1 out of a maximum of   91
 All quantities printed in internal units (Hartrees-Bohrs-Radians)
 Mixed Optimization -- RFO/linear search
 Second derivative matrix not updated -- first step.
 ITU=  0
     Eigenvalues ---    0.00230   0.00230   0.00230   0.01837   0.02421
     Eigenvalues ---    0.03732   0.03782   0.04703   0.05302   0.06380
     Eigenvalues ---    0.09282   0.09919   0.10899   0.13225   0.13882
     Eigenvalues ---    0.14415   0.15408   0.15977   0.16000   0.16000
     Eigenvalues ---    0.16000   0.16000   0.18952   0.19683   0.20439
     Eigenvalues ---    0.20440   0.20881   0.22277   0.33492   0.35170
     Eigenvalues ---    0.43277   0.43863   0.54274   0.54624   0.54680
     Eigenvalues ---    0.54844   0.54947   0.553471000.000001000.00000
     Eigenvalues --- 1000.000001000.000001000.000001000.000001000.00000
     Eigenvalues --- 1000.000001000.000001000.000001000.000001000.00000
     Eigenvalues --- 1000.000001000.000001000.000001000.000001000.00000
     Eigenvalues --- 1000.000001000.000001000.000001000.000001000.00000
     Eigenvalues --- 1000.000001000.000001000.000001000.000001000.00000
     Eigenvalues --- 1000.000001000.000001000.000001000.000001000.00000
     Eigenvalues --- 1000.000001000.000001000.000001000.000001000.00000
     Eigenvalues --- 1000.000001000.000001000.000001000.000001000.00000
     Eigenvalues --- 1000.00000
 RFO step:  Lambda=-5.11592823D-03 EMin= 2.30000000D-03
 Linear search not attempted -- first point.
 Iteration  1 RMS(Cart)=  0.03376028 RMS(Int)=  0.00028792
 Iteration  2 RMS(Cart)=  0.00026477 RMS(Int)=  0.00011665
 Iteration  3 RMS(Cart)=  0.00000010 RMS(Int)=  0.00011665
 Iteration  1 RMS(Cart)=  0.00000281 RMS(Int)=  0.00000507
 Iteration  2 RMS(Cart)=  0.00000227 RMS(Int)=  0.00000545
 Iteration  3 RMS(Cart)=  0.00000184 RMS(Int)=  0.00000622
 Iteration  4 RMS(Cart)=  0.00000149 RMS(Int)=  0.00000706
 Iteration  5 RMS(Cart)=  0.00000120 RMS(Int)=  0.00000783
 Iteration  6 RMS(Cart)=  0.00000097 RMS(Int)=  0.00000849
 Variable       Old X    -DE/DX   Delta X   Delta X   Delta X     New X
                                 (Linear)    (Quad)   (Total)
    R1        3.10319  -0.00137   0.00000  -0.00308  -0.00308   3.10011
    R2        3.11029  -0.00075   0.00000  -0.00171  -0.00171   3.10858
    R3        3.07737  -0.00343   0.00000   0.01604   0.01591   3.09328
    R4        5.39678   0.01408   0.00000   0.07859   0.07860   5.47537
    R5        3.19520   0.00168   0.00000   0.00092   0.00083   3.19603
    R6        1.81970   0.00004   0.00000   0.00007   0.00007   1.81977
    R7        1.82168   0.00018   0.00000   0.00032   0.00032   1.82200
    R8        3.87519   0.00280   0.00000   0.08107   0.08110   3.95629
    R9        4.35072   0.01713   0.00000   0.14159   0.14171   4.49244
   R10        3.72022   0.00181   0.00000   0.00895   0.00895   3.72916
   R11        3.74644   0.00729   0.00000   0.03747   0.03747   3.78391
   R12        3.69439   0.00485   0.00000   0.02312   0.02313   3.71751
   R13        1.82483   0.00222   0.00000   0.00406   0.00406   1.82889
   R14        1.81880  -0.00076   0.00000  -0.00137  -0.00137   1.81742
   R15        1.82117   0.00012   0.00000   0.00021   0.00021   1.82138
   R16        1.81525  -0.00004   0.00000  -0.00008  -0.00008   1.81517
    A1        1.87881   0.00041   0.00000  -0.00147  -0.00161   1.87720
    A2        2.06640   0.00112   0.00000   0.00217   0.00223   2.06862
    A3        2.12820  -0.00064   0.00000  -0.00342  -0.00341   2.12480
    A4        1.84268  -0.00106   0.00000  -0.01348  -0.01353   1.82915
    A5        1.96857   0.00153   0.00000  -0.00250  -0.00240   1.96617
    A6        2.27582   0.00023   0.00000   0.00476   0.00488   2.28070
    A7        1.98615  -0.00108   0.00000  -0.01532  -0.01539   1.97076
    A8        1.71611  -0.00141   0.00000   0.03016   0.03002   1.74613
    A9        2.02313  -0.00023   0.00000  -0.00137  -0.00137   2.02176
   A10        1.99882  -0.00005   0.00000  -0.00031  -0.00031   1.99850
   A11        1.76650   0.00655   0.00000   0.00000  -0.00001   1.76648
   A12        1.76535   0.00198   0.00000   0.01258   0.01239   1.77774
   A13        1.62759   0.00308   0.00000   0.01664   0.01654   1.64414
   A14        2.41731  -0.00105   0.00000  -0.00927  -0.00923   2.40808
   A15        1.22533  -0.00494   0.00000  -0.01711  -0.01694   1.20839
   A16        1.97349  -0.00064   0.00000  -0.00111  -0.00118   1.97231
   A17        1.98529   0.00038   0.00000   0.00735   0.00730   1.99259
   A18        1.83279   0.00236   0.00000  -0.00288  -0.00292   1.82986
   A19        1.42800   0.00332   0.00000   0.02090   0.02075   1.44875
   A20        1.28513   0.00448   0.00000   0.02862   0.02840   1.31353
   A21        1.99358   0.00257   0.00000   0.02015   0.01980   2.01338
   A22        1.82399  -0.00211   0.00000  -0.01443  -0.01441   1.80959
   A23        1.83238  -0.00306   0.00000  -0.01519  -0.01512   1.81727
   A24        2.03567   0.00085   0.00000   0.00649   0.00648   2.04214
   A25        1.99994  -0.00106   0.00000  -0.00962  -0.00955   1.99039
   A26        2.30994  -0.00171   0.00000  -0.01038  -0.01038   2.29956
   A27        2.22355  -0.00198   0.00000  -0.01201  -0.01201   2.21154
   A28        2.47858   0.00221   0.00000   0.01393   0.01390   2.49248
   A29        3.05811  -0.00258   0.00000  -0.01999  -0.01986   3.03825
   A30        3.05761  -0.00007   0.00000   0.00329   0.00320   3.06082
    D1       -0.55056  -0.00125   0.00000  -0.00579  -0.00576  -0.55631
    D2        1.70706   0.00228   0.00000  -0.00889  -0.00881   1.69825
    D3        2.61687  -0.00121   0.00000  -0.00124  -0.00123   2.61564
    D4       -2.67792   0.00038   0.00000   0.02036   0.02024  -2.65768
    D5        2.64795   0.00120   0.00000   0.00760   0.00756   2.65551
    D6        0.33621  -0.00192   0.00000   0.00795   0.00787   0.34409
    D7       -0.52243   0.00114   0.00000   0.00235   0.00230  -0.52013
    D8       -1.59959  -0.00046   0.00000  -0.01886  -0.01870  -1.61829
    D9        2.53765   0.00184   0.00000   0.00921   0.00927   2.54692
   D10        0.52229  -0.00188   0.00000  -0.01762  -0.01766   0.50463
   D11       -1.52111  -0.00018   0.00000  -0.00837  -0.00839  -1.52951
   D12       -0.57161   0.00189   0.00000   0.01505   0.01511  -0.55651
   D13       -2.58698  -0.00182   0.00000  -0.01178  -0.01182  -2.59879
   D14        1.65281  -0.00012   0.00000  -0.00253  -0.00255   1.65025
   D15       -0.01284  -0.00093   0.00000  -0.02026  -0.02014  -0.03298
   D16       -2.06943  -0.00016   0.00000  -0.00137  -0.00159  -2.07102
   D17        2.12810  -0.00067   0.00000  -0.00982  -0.00982   2.11828
   D18       -2.14736  -0.00095   0.00000  -0.00285  -0.00297  -2.15033
   D19        2.07286  -0.00038   0.00000   0.00245   0.00263   2.07549
   D20        0.00795  -0.00038   0.00000  -0.00173  -0.00213   0.00582
   D21        2.16947   0.00144   0.00000   0.00992   0.01022   2.17970
   D22       -0.95628  -0.00162   0.00000  -0.00334  -0.00349  -0.95978
   D23       -1.54004   0.00106   0.00000  -0.00254  -0.00258  -1.54261
   D24       -0.41718  -0.00258   0.00000  -0.01043  -0.01037  -0.42755
   D25        0.76720   0.00350   0.00000   0.02697   0.02720   0.79440
   D26        2.75973  -0.00021   0.00000   0.00974   0.00964   2.76936
   D27       -2.53214   0.00120   0.00000   0.00560   0.00572  -2.52643
   D28       -2.04159  -0.00092   0.00000   0.00601   0.00616  -2.03543
   D29       -3.07160   0.00239   0.00000   0.01212   0.01207  -3.05953
   D30        1.94002  -0.00290   0.00000  -0.01970  -0.01999   1.92003
   D31       -0.04755   0.00024   0.00000  -0.00299  -0.00292  -0.05046
   D32       -2.17034  -0.00009   0.00000  -0.00438  -0.00445  -2.17479
   D33       -2.04483  -0.00029   0.00000  -0.00514  -0.00523  -2.05007
   D34        0.03632  -0.00092   0.00000  -0.01421  -0.01423   0.02210
   D35        2.13999  -0.00039   0.00000  -0.00505  -0.00520   2.13479
         Item               Value     Threshold  Converged?
 Maximum Force            0.014862     0.000450     NO 
 RMS     Force            0.002789     0.000300     NO 
 Maximum Displacement     0.131519     0.001800     NO 
 RMS     Displacement     0.033760     0.001200     NO 
 Predicted change in Energy=-2.679677D-03
 GradGradGradGradGradGradGradGradGradGradGradGradGradGradGradGradGradGrad

                          Input orientation:                          
 ---------------------------------------------------------------------
 Center     Atomic      Atomic             Coordinates (Angstroms)
 Number     Number       Type             X           Y           Z
 ---------------------------------------------------------------------
      1         14           0       -1.928620   -0.044064   -0.136768
      2          8           0       -2.794123    1.329439   -0.372699
      3          8           0       -2.990376   -1.300080   -0.103750
      4          8           0       -0.640778   -0.332472   -1.105122
      5         40           0        0.946718    0.007868    0.216654
      6          1           0       -3.592018    1.236705   -0.903827
      7          1           0       -2.620901   -2.143681   -0.389110
      8          8           0       -1.139983    0.190612    1.340852
      9          1           0       -1.277047    1.041083    1.781944
     10          8           0        1.226235   -1.477838    1.485042
     11          1           0        0.849763   -1.660001    2.351082
     12          8           0        0.962140    1.839809    1.024862
     13          1           0        1.640767    2.514534    0.910020
     14          8           0        2.558539   -0.033073   -0.910431
     15          1           0        3.380025   -0.509761   -1.053898
 ---------------------------------------------------------------------
                    Distance matrix (angstroms):
                    1          2          3          4          5
     1  Si   0.000000
     2  O    1.640509   0.000000
     3  O    1.644990   2.650513   0.000000
     4  O    1.636895   2.816964   2.731231   0.000000
     5  Zr   2.897442   4.010958   4.161021   2.093578   0.000000
     6  H    2.235094   0.962982   2.727155   3.348530   4.833803
     7  H    2.225156   3.477476   0.964160   2.777416   4.209990
     8  O    1.691267   2.639955   2.780826   2.550611   2.377297
     9  H    2.298596   2.650878   3.460112   3.259853   2.909089
    10  O    3.826106   5.243595   4.509509   3.392131   1.973388
    11  H    4.064488   5.443679   4.571915   3.991165   2.710530
    12  O    3.640721   4.040193   5.172528   3.438748   2.002361
    13  H    4.514721   4.766348   6.084940   4.167936   2.691809
    14  O    4.553380   5.549467   5.748609   3.219189   1.967222
    15  H    5.407375   6.478178   6.489175   4.025036   2.793425
                    6          7          8          9         10
     6  H    0.000000
     7  H    3.554576   0.000000
     8  O    3.485021   3.261106   0.000000
     9  H    3.551159   4.081928   0.967806   0.000000
    10  O    6.024202   4.330849   2.898880   3.563640   0.000000
    11  H    6.222119   4.448383   2.899038   3.484694   0.961738
    12  O    4.982362   5.541272   2.690468   2.495014   3.359806
    13  H    5.683743   6.445814   3.649493   3.383038   4.054814
    14  O    6.280266   5.617209   4.335594   4.807745   3.098495
    15  H    7.189023   6.254818   5.162928   5.668812   3.467304
                   11         12         13         14         15
    11  H    0.000000
    12  O    3.744351   0.000000
    13  H    4.486545   0.963835   0.000000
    14  O    4.025454   3.130741   3.262920   0.000000
    15  H    4.395357   3.960795   4.003543   0.960549   0.000000
 Stoichiometry    H6O7SiZr
 Framework group  C1[X(H6O7SiZr)]
 Deg. of freedom    39
 Full point group                 C1      NOp   1
 Largest Abelian subgroup         C1      NOp   1
 Largest concise Abelian subgroup C1      NOp   1
                         Standard orientation:                         
 ---------------------------------------------------------------------
 Center     Atomic      Atomic             Coordinates (Angstroms)
 Number     Number       Type             X           Y           Z
 ---------------------------------------------------------------------
      1         14           0       -1.834869   -0.039219   -0.152313
      2          8           0       -2.702030    1.344698   -0.307477
      3          8           0       -2.903868   -1.283557   -0.030426
      4          8           0       -0.639936   -0.337922   -1.230431
      5         40           0        1.060757   -0.020466   -0.051478
      6          1           0       -3.544290    1.262923   -0.767092
      7          1           0       -2.570345   -2.130028   -0.349570
      8          8           0       -0.917507    0.180774    1.251408
      9          1           0       -1.005836    1.030920    1.705388
     10          8           0        1.433165   -1.514271    1.183075
     11          1           0        1.131773   -1.695757    2.078153
     12          8           0        1.167545    1.807919    0.757875
     13          1           0        1.841157    2.475567    0.586200
     14          8           0        2.567347   -0.074657   -1.315287
     15          1           0        3.367687   -0.559805   -1.531482
 ---------------------------------------------------------------------
 Rotational constants (GHZ):           1.7732541           0.6440832           0.6115209
 Basis read from rwf:  (5D, 7F)
 Pseudo-potential data read from rwf file.
 There are   178 symmetry adapted cartesian basis functions of A   symmetry.
 There are   168 symmetry adapted basis functions of A   symmetry.
   168 basis functions,   339 primitive gaussians,   178 cartesian basis functions
    44 alpha electrons       44 beta electrons
       nuclear repulsion energy       670.3986919557 Hartrees.
 NAtoms=   15 NActive=   15 NUniq=   15 SFac= 1.00D+00 NAtFMM=   60 NAOKFM=F Big=F
 Integral buffers will be    131072 words long.
 Raffenetti 2 integral format.
 Two-electron integral symmetry is turned on.
 One-electron integrals computed using PRISM.
   1 Symmetry operations used in ECPInt.
 ECPInt:  NShTT=    1770 NPrTT=   10201 LenC2=    1671 LenP2D=    6806.
 LDataN:  DoStor=T MaxTD1= 5 Len=  102
 NBasis=   168 RedAO= T EigKep=  7.29D-03  NBF=   168
 NBsUse=   168 1.00D-06 EigRej= -1.00D+00 NBFU=   168
 Defaulting to unpruned grid for atomic number  40.
 Initial guess from the checkpoint file:  "/localscratch/sarashs.33453154.0/Gau-13140.chk"
 B after Tr=     0.000000   -0.000000    0.000000
         Rot=    0.999990    0.004350   -0.000332    0.000974 Ang=   0.51 deg.
 ExpMin= 2.43D-02 ExpMax= 1.61D+04 ExpMxC= 2.43D+03 IAcc=3 IRadAn=         5 AccDes= 0.00D+00
 Harris functional with IExCor=  402 and IRadAn=       5 diagonalized for initial guess.
 HarFok:  IExCor=  402 AccDes= 0.00D+00 IRadAn=         5 IDoV= 1 UseB2=F ITyADJ=14
 ICtDFT=  3500011 ScaDFX=  1.000000  1.000000  1.000000  1.000000
 Defaulting to unpruned grid for atomic number  40.
 FoFCou: FMM=F IPFlag=           0 FMFlag=      100000 FMFlg1=           0
         NFxFlg=           0 DoJE=T BraDBF=F KetDBF=T FulRan=T
         wScrn=  0.000000 ICntrl=       500 IOpCl=  0 I1Cent=   200000004 NGrid=           0
         NMat0=    1 NMatS0=      1 NMatT0=    0 NMatD0=    1 NMtDS0=    0 NMtDT0=    0
 Petite list used in FoFCou.
 Requested convergence on RMS density matrix=1.00D-08 within 128 cycles.
 Requested convergence on MAX density matrix=1.00D-06.
 Requested convergence on             energy=1.00D-06.
 No special actions if energy rises.
 Defaulting to unpruned grid for atomic number  40.
 Defaulting to unpruned grid for atomic number  40.
 Defaulting to unpruned grid for atomic number  40.
 Defaulting to unpruned grid for atomic number  40.
 Defaulting to unpruned grid for atomic number  40.
 Defaulting to unpruned grid for atomic number  40.
 Defaulting to unpruned grid for atomic number  40.
 Defaulting to unpruned grid for atomic number  40.
 Defaulting to unpruned grid for atomic number  40.
 Defaulting to unpruned grid for atomic number  40.
 Defaulting to unpruned grid for atomic number  40.
 Defaulting to unpruned grid for atomic number  40.
 Defaulting to unpruned grid for atomic number  40.
 Defaulting to unpruned grid for atomic number  40.
 Defaulting to unpruned grid for atomic number  40.
 Defaulting to unpruned grid for atomic number  40.
 SCF Done:  E(RB3LYP) =  -866.685030091     A.U. after   10 cycles
            NFock= 10  Conv=0.87D-08     -V/T= 2.0445
   1 Symmetry operations used in ECPInt.
 ECPInt:  NShTT=    1770 NPrTT=   10201 LenC2=    1671 LenP2D=    6806.
 LDataN:  DoStor=T MaxTD1= 6 Len=  172
 Calling FoFJK, ICntrl=      2127 FMM=F ISym2X=0 I1Cent= 0 IOpClX= 0 NMat=1 NMatS=1 NMatT=0.
 Defaulting to unpruned grid for atomic number  40.
 Defaulting to unpruned grid for atomic number  40.
 Defaulting to unpruned grid for atomic number  40.
 Defaulting to unpruned grid for atomic number  40.
 Defaulting to unpruned grid for atomic number  40.
 Defaulting to unpruned grid for atomic number  40.
 Defaulting to unpruned grid for atomic number  40.
 Defaulting to unpruned grid for atomic number  40.
 Defaulting to unpruned grid for atomic number  40.
 Defaulting to unpruned grid for atomic number  40.
 Defaulting to unpruned grid for atomic number  40.
 Defaulting to unpruned grid for atomic number  40.
 Defaulting to unpruned grid for atomic number  40.
 Defaulting to unpruned grid for atomic number  40.
 Defaulting to unpruned grid for atomic number  40.
 Defaulting to unpruned grid for atomic number  40.
 ***** Axes restored to original set *****
 -------------------------------------------------------------------
 Center     Atomic                   Forces (Hartrees/Bohr)
 Number     Number              X              Y              Z
 -------------------------------------------------------------------
      1       14          -0.009428544   -0.003481159   -0.013434825
      2        8          -0.000158143    0.000738457    0.000352925
      3        8          -0.000056340   -0.000619435    0.000656824
      4        8           0.001299195    0.005292503    0.020197538
      5       40           0.014552432    0.001540281   -0.006723318
      6        1           0.000055478    0.000050533   -0.000066193
      7        1          -0.000153276    0.000086585   -0.000185734
      8        8          -0.004877721   -0.000163233    0.002237497
      9        1           0.000794460    0.000149141   -0.001006595
     10        8           0.001842794    0.000909923   -0.003041967
     11        1          -0.000555537    0.000371564    0.000522163
     12        8           0.000474724   -0.004224458   -0.001683501
     13        1           0.000458539   -0.000589523   -0.000652261
     14        8          -0.004238575   -0.000335657    0.003164050
     15        1          -0.000009486    0.000274480   -0.000336601
 -------------------------------------------------------------------
 Cartesian Forces:  Max     0.020197538 RMS     0.004887495

 GradGradGradGradGradGradGradGradGradGradGradGradGradGradGradGradGradGrad
 Berny optimization.
 Using GEDIIS/GDIIS optimizer.
 FormGI is forming the generalized inverse of G from B-inverse, IUseBI=4.
 Internal  Forces:  Max     0.009470873 RMS     0.002643426
 Search for a local minimum.
 Step number   2 out of a maximum of   91
 All quantities printed in internal units (Hartrees-Bohrs-Radians)
 Mixed Optimization -- RFO/linear search
 Update second derivatives using D2CorX and points    1    2
 DE= -2.79D-03 DEPred=-2.68D-03 R= 1.04D+00
 TightC=F SS=  1.41D+00  RLast= 2.12D-01 DXNew= 5.0454D-01 6.3464D-01
 Trust test= 1.04D+00 RLast= 2.12D-01 DXMaxT set to 5.05D-01
 ITU=  1  0
 Use linear search instead of GDIIS.
     Eigenvalues ---    0.00230   0.00230   0.00230   0.01833   0.02458
     Eigenvalues ---    0.03731   0.03782   0.04738   0.05378   0.06259
     Eigenvalues ---    0.07478   0.09386   0.11012   0.13177   0.13306
     Eigenvalues ---    0.14258   0.15464   0.15886   0.15986   0.16000
     Eigenvalues ---    0.16000   0.16005   0.19481   0.19904   0.20363
     Eigenvalues ---    0.20834   0.22275   0.24955   0.33617   0.35338
     Eigenvalues ---    0.43308   0.43939   0.54342   0.54625   0.54681
     Eigenvalues ---    0.54844   0.54989   0.553471000.000001000.00000
     Eigenvalues --- 1000.000001000.000001000.000001000.000001000.00000
     Eigenvalues --- 1000.000001000.000001000.000001000.000001000.00000
     Eigenvalues --- 1000.000001000.000001000.000001000.000001000.00000
     Eigenvalues --- 1000.000001000.000001000.000001000.000001000.00000
     Eigenvalues --- 1000.000001000.000001000.000001000.000001000.00000
     Eigenvalues --- 1000.000001000.000001000.000001000.000001000.00000
     Eigenvalues --- 1000.000001000.000001000.000001000.000001000.00000
     Eigenvalues --- 1000.000001000.000001000.000001000.000001000.00000
     Eigenvalues --- 1000.00000
 RFO step:  Lambda=-7.32004148D-04 EMin= 2.29986655D-03
 Quartic linear search produced a step of  0.16698.
 Iteration  1 RMS(Cart)=  0.01679492 RMS(Int)=  0.00012663
 Iteration  2 RMS(Cart)=  0.00013724 RMS(Int)=  0.00005540
 Iteration  3 RMS(Cart)=  0.00000001 RMS(Int)=  0.00005540
 Iteration  1 RMS(Cart)=  0.00000241 RMS(Int)=  0.00000434
 Iteration  2 RMS(Cart)=  0.00000195 RMS(Int)=  0.00000466
 Iteration  3 RMS(Cart)=  0.00000158 RMS(Int)=  0.00000533
 Iteration  4 RMS(Cart)=  0.00000128 RMS(Int)=  0.00000604
 Iteration  5 RMS(Cart)=  0.00000103 RMS(Int)=  0.00000670
 Iteration  6 RMS(Cart)=  0.00000084 RMS(Int)=  0.00000727
 Variable       Old X    -DE/DX   Delta X   Delta X   Delta X     New X
                                 (Linear)    (Quad)   (Total)
    R1        3.10011   0.00067  -0.00051   0.00187   0.00136   3.10147
    R2        3.10858   0.00055  -0.00029   0.00153   0.00124   3.10982
    R3        3.09328  -0.00815   0.00266   0.00194   0.00456   3.09784
    R4        5.47537   0.00815   0.01312   0.00787   0.02098   5.49636
    R5        3.19603   0.00200   0.00014  -0.00052  -0.00037   3.19566
    R6        1.81977  -0.00001   0.00001  -0.00003  -0.00002   1.81975
    R7        1.82200  -0.00008   0.00005  -0.00018  -0.00012   1.82188
    R8        3.95629  -0.00825   0.01354   0.00781   0.02133   3.97762
    R9        4.49244   0.00656   0.02366   0.03591   0.05963   4.55207
   R10        3.72916  -0.00240   0.00149  -0.01438  -0.01289   3.71627
   R11        3.78391  -0.00534   0.00626  -0.03360  -0.02734   3.75657
   R12        3.71751  -0.00510   0.00386  -0.02955  -0.02568   3.69183
   R13        1.82889  -0.00044   0.00068  -0.00106  -0.00038   1.82851
   R14        1.81742   0.00062  -0.00023   0.00135   0.00112   1.81854
   R15        1.82138  -0.00001   0.00004  -0.00003   0.00000   1.82139
   R16        1.81517  -0.00009  -0.00001  -0.00019  -0.00021   1.81497
    A1        1.87720   0.00015  -0.00027   0.00120   0.00088   1.87807
    A2        2.06862   0.00170   0.00037   0.00016   0.00055   2.06917
    A3        2.12480  -0.00001  -0.00057  -0.00329  -0.00382   2.12097
    A4        1.82915   0.00009  -0.00226  -0.00513  -0.00743   1.82172
    A5        1.96617   0.00265  -0.00040  -0.00059  -0.00095   1.96522
    A6        2.28070  -0.00012   0.00081   0.00208   0.00290   2.28361
    A7        1.97076   0.00038  -0.00257  -0.00570  -0.00829   1.96247
    A8        1.74613  -0.00549   0.00501   0.00942   0.01440   1.76053
    A9        2.02176   0.00006  -0.00023   0.00045   0.00022   2.02198
   A10        1.99850   0.00012  -0.00005   0.00090   0.00085   1.99935
   A11        1.76648   0.00947  -0.00000   0.00000   0.00000   1.76648
   A12        1.77774   0.00144   0.00207   0.00835   0.01030   1.78804
   A13        1.64414   0.00154   0.00276   0.00654   0.00925   1.65339
   A14        2.40808  -0.00141  -0.00154  -0.00584  -0.00736   2.40072
   A15        1.20839  -0.00460  -0.00283  -0.00196  -0.00477   1.20362
   A16        1.97231  -0.00042  -0.00020  -0.00066  -0.00093   1.97138
   A17        1.99259  -0.00079   0.00122   0.00741   0.00857   2.00116
   A18        1.82986   0.00258  -0.00049  -0.00454  -0.00501   1.82486
   A19        1.44875   0.00211   0.00346   0.01232   0.01576   1.46451
   A20        1.31353   0.00176   0.00474   0.00665   0.01130   1.32483
   A21        2.01338   0.00063   0.00331   0.00621   0.00932   2.02270
   A22        1.80959  -0.00090  -0.00241  -0.00632  -0.00870   1.80088
   A23        1.81727  -0.00090  -0.00252  -0.00573  -0.00822   1.80905
   A24        2.04214   0.00027   0.00108  -0.00510  -0.00412   2.03803
   A25        1.99039  -0.00055  -0.00159  -0.00789  -0.00953   1.98086
   A26        2.29956  -0.00106  -0.00173  -0.00745  -0.00918   2.29037
   A27        2.21154  -0.00180  -0.00200  -0.01277  -0.01478   2.19676
   A28        2.49248   0.00062   0.00232   0.00512   0.00743   2.49991
   A29        3.03825  -0.00203  -0.00332  -0.00649  -0.00978   3.02847
   A30        3.06082  -0.00038   0.00053  -0.00382  -0.00339   3.05743
    D1       -0.55631  -0.00109  -0.00096  -0.00358  -0.00454  -0.56085
    D2        1.69825   0.00426  -0.00147  -0.00314  -0.00458   1.69367
    D3        2.61564  -0.00167  -0.00021  -0.00313  -0.00334   2.61230
    D4       -2.65768  -0.00165   0.00338   0.00511   0.00845  -2.64923
    D5        2.65551   0.00078   0.00126  -0.00048   0.00077   2.65628
    D6        0.34409  -0.00379   0.00131  -0.00124   0.00005   0.34414
    D7       -0.52013   0.00143   0.00038  -0.00112  -0.00074  -0.52087
    D8       -1.61829   0.00119  -0.00312  -0.00911  -0.01219  -1.63047
    D9        2.54692   0.00121   0.00155   0.01048   0.01207   2.55899
   D10        0.50463  -0.00014  -0.00295   0.00065  -0.00232   0.50231
   D11       -1.52951   0.00025  -0.00140   0.00532   0.00389  -1.52561
   D12       -0.55651   0.00048   0.00252   0.01110   0.01367  -0.54284
   D13       -2.59879  -0.00087  -0.00197   0.00128  -0.00072  -2.59952
   D14        1.65025  -0.00049  -0.00043   0.00595   0.00549   1.65574
   D15       -0.03298  -0.00014  -0.00336  -0.01337  -0.01666  -0.04964
   D16       -2.07102  -0.00057  -0.00026  -0.00879  -0.00913  -2.08015
   D17        2.11828  -0.00061  -0.00164  -0.01110  -0.01273   2.10555
   D18       -2.15033  -0.00031  -0.00050   0.00872   0.00814  -2.14218
   D19        2.07549  -0.00036   0.00044   0.01487   0.01536   2.09085
   D20        0.00582   0.00023  -0.00036   0.01461   0.01407   0.01989
   D21        2.17970   0.00133   0.00171   0.01737   0.01920   2.19890
   D22       -0.95978  -0.00150  -0.00058  -0.00164  -0.00232  -0.96210
   D23       -1.54261   0.00220  -0.00043  -0.00499  -0.00538  -1.54800
   D24       -0.42755  -0.00178  -0.00173  -0.00043  -0.00217  -0.42973
   D25        0.79440   0.00121   0.00454   0.01208   0.01672   0.81113
   D26        2.76936  -0.00013   0.00161   0.00418   0.00575   2.77511
   D27       -2.52643   0.00131   0.00095   0.01335   0.01433  -2.51209
   D28       -2.03543  -0.00205   0.00103   0.01291   0.01401  -2.02141
   D29       -3.05953   0.00199   0.00201   0.01509   0.01711  -3.04242
   D30        1.92003  -0.00123  -0.00334  -0.00067  -0.00414   1.91589
   D31       -0.05046   0.00011  -0.00049   0.00755   0.00709  -0.04337
   D32       -2.17479  -0.00007  -0.00074  -0.00256  -0.00331  -2.17810
   D33       -2.05007  -0.00057  -0.00087   0.00213   0.00119  -2.04887
   D34        0.02210  -0.00034  -0.00238  -0.00328  -0.00565   0.01645
   D35        2.13479  -0.00042  -0.00087  -0.00160  -0.00254   2.13224
         Item               Value     Threshold  Converged?
 Maximum Force            0.005339     0.000450     NO 
 RMS     Force            0.001103     0.000300     NO 
 Maximum Displacement     0.058788     0.001800     NO 
 RMS     Displacement     0.016742     0.001200     NO 
 Predicted change in Energy=-3.982814D-04
 GradGradGradGradGradGradGradGradGradGradGradGradGradGradGradGradGradGrad

                          Input orientation:                          
 ---------------------------------------------------------------------
 Center     Atomic      Atomic             Coordinates (Angstroms)
 Number     Number       Type             X           Y           Z
 ---------------------------------------------------------------------
      1         14           0       -1.933080   -0.045295   -0.137039
      2          8           0       -2.794597    1.330746   -0.377722
      3          8           0       -2.997576   -1.299887   -0.105349
      4          8           0       -0.640963   -0.339698   -1.101972
      5         40           0        0.951844    0.011095    0.228578
      6          1           0       -3.589003    1.240307   -0.914430
      7          1           0       -2.629297   -2.145003   -0.387537
      8          8           0       -1.170482    0.192066    1.353539
      9          1           0       -1.308156    1.048633    1.782019
     10          8           0        1.250029   -1.478445    1.477475
     11          1           0        0.874307   -1.664813    2.343605
     12          8           0        0.980506    1.831701    1.026253
     13          1           0        1.665812    2.496108    0.892472
     14          8           0        2.548495   -0.024472   -0.896640
     15          1           0        3.372502   -0.493965   -1.048404
 ---------------------------------------------------------------------
                    Distance matrix (angstroms):
                    1          2          3          4          5
     1  Si   0.000000
     2  O    1.641228   0.000000
     3  O    1.645648   2.652474   0.000000
     4  O    1.639309   2.820117   2.732918   0.000000
     5  Zr   2.908546   4.018072   4.174698   2.104865   0.000000
     6  H    2.235887   0.962972   2.730748   3.350004   4.841149
     7  H    2.226262   3.479691   0.964095   2.779031   4.225273
     8  O    1.691070   2.632795   2.773544   2.567625   2.408850
     9  H    2.295647   2.636964   3.454251   3.269559   2.932109
    10  O    3.846135   5.262348   4.536448   3.395018   1.966567
    11  H    4.081403   5.462586   4.595870   3.990485   2.699633
    12  O    3.655864   4.058757   5.187726   3.445791   1.987891
    13  H    4.524450   4.781916   6.095278   4.164231   2.669418
    14  O    4.545541   5.536653   5.745583   3.211569   1.953631
    15  H    5.401952   6.466258   6.489742   4.016786   2.783047
                    6          7          8          9         10
     6  H    0.000000
     7  H    3.557946   0.000000
     8  O    3.477317   3.259045   0.000000
     9  H    3.536925   4.080649   0.967604   0.000000
    10  O    6.043927   4.355656   2.943610   3.608764   0.000000
    11  H    6.243048   4.468216   2.934176   3.527224   0.962331
    12  O    4.999641   5.553706   2.724384   2.534236   3.351613
    13  H    5.696930   6.451845   3.683173   3.425050   4.038834
    14  O    6.266488   5.618307   4.352125   4.816693   3.071884
    15  H    7.175527   6.259733   5.184465   5.683262   3.442987
                   11         12         13         14         15
    11  H    0.000000
    12  O    3.737954   0.000000
    13  H    4.477224   0.963836   0.000000
    14  O    3.999101   3.098627   3.214556   0.000000
    15  H    4.372366   3.928686   3.952256   0.960439   0.000000
 Stoichiometry    H6O7SiZr
 Framework group  C1[X(H6O7SiZr)]
 Deg. of freedom    39
 Full point group                 C1      NOp   1
 Largest Abelian subgroup         C1      NOp   1
 Largest concise Abelian subgroup C1      NOp   1
                         Standard orientation:                         
 ---------------------------------------------------------------------
 Center     Atomic      Atomic             Coordinates (Angstroms)
 Number     Number       Type             X           Y           Z
 ---------------------------------------------------------------------
      1         14           0       -1.841128   -0.038660   -0.151865
      2          8           0       -2.703786    1.349198   -0.304510
      3          8           0       -2.913839   -1.280913   -0.032465
      4          8           0       -0.645157   -0.340670   -1.231576
      5         40           0        1.065500   -0.018884   -0.048123
      6          1           0       -3.544465    1.272234   -0.767812
      7          1           0       -2.583018   -2.128066   -0.352416
      8          8           0       -0.944178    0.178181    1.265237
      9          1           0       -1.032002    1.032950    1.710113
     10          8           0        1.456804   -1.521461    1.158745
     11          1           0        1.158549   -1.710136    2.054026
     12          8           0        1.188571    1.795015    0.755827
     13          1           0        1.867157    2.452373    0.565089
     14          8           0        2.553465   -0.064405   -1.313257
     15          1           0        3.354535   -0.542320   -1.542005
 ---------------------------------------------------------------------
 Rotational constants (GHZ):           1.7792831           0.6409060           0.6085201
 Basis read from rwf:  (5D, 7F)
 Pseudo-potential data read from rwf file.
 There are   178 symmetry adapted cartesian basis functions of A   symmetry.
 There are   168 symmetry adapted basis functions of A   symmetry.
   168 basis functions,   339 primitive gaussians,   178 cartesian basis functions
    44 alpha electrons       44 beta electrons
       nuclear repulsion energy       669.7268856219 Hartrees.
 NAtoms=   15 NActive=   15 NUniq=   15 SFac= 1.00D+00 NAtFMM=   60 NAOKFM=F Big=F
 Integral buffers will be    131072 words long.
 Raffenetti 2 integral format.
 Two-electron integral symmetry is turned on.
 One-electron integrals computed using PRISM.
   1 Symmetry operations used in ECPInt.
 ECPInt:  NShTT=    1770 NPrTT=   10201 LenC2=    1672 LenP2D=    6805.
 LDataN:  DoStor=T MaxTD1= 5 Len=  102
 NBasis=   168 RedAO= T EigKep=  7.37D-03  NBF=   168
 NBsUse=   168 1.00D-06 EigRej= -1.00D+00 NBFU=   168
 Defaulting to unpruned grid for atomic number  40.
 Initial guess from the checkpoint file:  "/localscratch/sarashs.33453154.0/Gau-13140.chk"
 B after Tr=     0.000000    0.000000    0.000000
         Rot=    0.999997   -0.002200   -0.000823    0.000248 Ang=  -0.27 deg.
 ExpMin= 2.43D-02 ExpMax= 1.61D+04 ExpMxC= 2.43D+03 IAcc=3 IRadAn=         5 AccDes= 0.00D+00
 Harris functional with IExCor=  402 and IRadAn=       5 diagonalized for initial guess.
 HarFok:  IExCor=  402 AccDes= 0.00D+00 IRadAn=         5 IDoV= 1 UseB2=F ITyADJ=14
 ICtDFT=  3500011 ScaDFX=  1.000000  1.000000  1.000000  1.000000
 Defaulting to unpruned grid for atomic number  40.
 FoFCou: FMM=F IPFlag=           0 FMFlag=      100000 FMFlg1=           0
         NFxFlg=           0 DoJE=T BraDBF=F KetDBF=T FulRan=T
         wScrn=  0.000000 ICntrl=       500 IOpCl=  0 I1Cent=   200000004 NGrid=           0
         NMat0=    1 NMatS0=      1 NMatT0=    0 NMatD0=    1 NMtDS0=    0 NMtDT0=    0
 Petite list used in FoFCou.
 Requested convergence on RMS density matrix=1.00D-08 within 128 cycles.
 Requested convergence on MAX density matrix=1.00D-06.
 Requested convergence on             energy=1.00D-06.
 No special actions if energy rises.
 Defaulting to unpruned grid for atomic number  40.
 Defaulting to unpruned grid for atomic number  40.
 Defaulting to unpruned grid for atomic number  40.
 Defaulting to unpruned grid for atomic number  40.
 Defaulting to unpruned grid for atomic number  40.
 Defaulting to unpruned grid for atomic number  40.
 Defaulting to unpruned grid for atomic number  40.
 Defaulting to unpruned grid for atomic number  40.
 Defaulting to unpruned grid for atomic number  40.
 Defaulting to unpruned grid for atomic number  40.
 Defaulting to unpruned grid for atomic number  40.
 Defaulting to unpruned grid for atomic number  40.
 Defaulting to unpruned grid for atomic number  40.
 Defaulting to unpruned grid for atomic number  40.
 Defaulting to unpruned grid for atomic number  40.
 Defaulting to unpruned grid for atomic number  40.
 SCF Done:  E(RB3LYP) =  -866.685458586     A.U. after   10 cycles
            NFock= 10  Conv=0.74D-08     -V/T= 2.0445
   1 Symmetry operations used in ECPInt.
 ECPInt:  NShTT=    1770 NPrTT=   10201 LenC2=    1672 LenP2D=    6805.
 LDataN:  DoStor=T MaxTD1= 6 Len=  172
 Calling FoFJK, ICntrl=      2127 FMM=F ISym2X=0 I1Cent= 0 IOpClX= 0 NMat=1 NMatS=1 NMatT=0.
 Defaulting to unpruned grid for atomic number  40.
 Defaulting to unpruned grid for atomic number  40.
 Defaulting to unpruned grid for atomic number  40.
 Defaulting to unpruned grid for atomic number  40.
 Defaulting to unpruned grid for atomic number  40.
 Defaulting to unpruned grid for atomic number  40.
 Defaulting to unpruned grid for atomic number  40.
 Defaulting to unpruned grid for atomic number  40.
 Defaulting to unpruned grid for atomic number  40.
 Defaulting to unpruned grid for atomic number  40.
 Defaulting to unpruned grid for atomic number  40.
 Defaulting to unpruned grid for atomic number  40.
 Defaulting to unpruned grid for atomic number  40.
 Defaulting to unpruned grid for atomic number  40.
 Defaulting to unpruned grid for atomic number  40.
 Defaulting to unpruned grid for atomic number  40.
 ***** Axes restored to original set *****
 -------------------------------------------------------------------
 Center     Atomic                   Forces (Hartrees/Bohr)
 Number     Number              X              Y              Z
 -------------------------------------------------------------------
      1       14          -0.008276162   -0.004165575   -0.014015420
      2        8          -0.000320651    0.000730855   -0.000052474
      3        8          -0.000136731   -0.000549787    0.000436038
      4        8           0.001130554    0.006659737    0.023451178
      5       40           0.005936691   -0.001873922   -0.010144784
      6        1           0.000119344    0.000068115   -0.000140057
      7        1          -0.000107359    0.000171432   -0.000289439
      8        8          -0.000915184   -0.000413287    0.000943066
      9        1           0.000445495    0.000048178   -0.000944445
     10        8           0.000928036   -0.001205650    0.000611725
     11        1          -0.000062553    0.000068732    0.000333969
     12        8           0.000352303    0.000551467    0.000661398
     13        1           0.000215928    0.000016950   -0.000222875
     14        8           0.000653014   -0.000323405   -0.000123670
     15        1           0.000037274    0.000216160   -0.000504210
 -------------------------------------------------------------------
 Cartesian Forces:  Max     0.023451178 RMS     0.004780665

 GradGradGradGradGradGradGradGradGradGradGradGradGradGradGradGradGradGrad
 Berny optimization.
 Using GEDIIS/GDIIS optimizer.
 FormGI is forming the generalized inverse of G from B-inverse, IUseBI=4.
 Internal  Forces:  Max     0.010283021 RMS     0.002645027
 Search for a local minimum.
 Step number   3 out of a maximum of   91
 All quantities printed in internal units (Hartrees-Bohrs-Radians)
 Mixed Optimization -- En-DIIS/RFO-DIIS
 Update second derivatives using D2CorX and points    1    2    3
 DE= -4.28D-04 DEPred=-3.98D-04 R= 1.08D+00
 TightC=F SS=  1.41D+00  RLast= 1.06D-01 DXNew= 8.4853D-01 3.1704D-01
 Trust test= 1.08D+00 RLast= 1.06D-01 DXMaxT set to 5.05D-01
 ITU=  1  1  0
 Use linear search instead of GDIIS.
     Eigenvalues ---    0.00229   0.00230   0.00230   0.01772   0.02432
     Eigenvalues ---    0.03695   0.03778   0.04697   0.05248   0.06080
     Eigenvalues ---    0.06774   0.09405   0.11061   0.12765   0.13816
     Eigenvalues ---    0.14251   0.15530   0.15823   0.15988   0.16000
     Eigenvalues ---    0.16002   0.16009   0.19583   0.20031   0.20311
     Eigenvalues ---    0.20796   0.22313   0.27602   0.33677   0.35701
     Eigenvalues ---    0.43301   0.43964   0.54360   0.54626   0.54688
     Eigenvalues ---    0.54845   0.54976   0.553471000.000001000.00000
     Eigenvalues --- 1000.000001000.000001000.000001000.000001000.00000
     Eigenvalues --- 1000.000001000.000001000.000001000.000001000.00000
     Eigenvalues --- 1000.000001000.000001000.000001000.000001000.00000
     Eigenvalues --- 1000.000001000.000001000.000001000.000001000.00000
     Eigenvalues --- 1000.000001000.000001000.000001000.000001000.00000
     Eigenvalues --- 1000.000001000.000001000.000001000.000001000.00000
     Eigenvalues --- 1000.000001000.000001000.000001000.000001000.00000
     Eigenvalues --- 1000.000001000.000001000.000001000.000001000.00000
     Eigenvalues --- 1000.00000
 RFO step:  Lambda=-9.57584101D-05 EMin= 2.29249944D-03
 Quartic linear search produced a step of  0.04526.
 Iteration  1 RMS(Cart)=  0.00805347 RMS(Int)=  0.00005745
 Iteration  2 RMS(Cart)=  0.00004400 RMS(Int)=  0.00001420
 Iteration  3 RMS(Cart)=  0.00000000 RMS(Int)=  0.00001420
 Iteration  1 RMS(Cart)=  0.00000095 RMS(Int)=  0.00000171
 Variable       Old X    -DE/DX   Delta X   Delta X   Delta X     New X
                                 (Linear)    (Quad)   (Total)
    R1        3.10147   0.00080   0.00006   0.00202   0.00208   3.10355
    R2        3.10982   0.00045   0.00006   0.00118   0.00124   3.11106
    R3        3.09784  -0.01010   0.00021  -0.00290  -0.00269   3.09515
    R4        5.49636   0.00719   0.00095  -0.00268  -0.00174   5.49461
    R5        3.19566   0.00232  -0.00002  -0.00012  -0.00013   3.19553
    R6        1.81975  -0.00003  -0.00000  -0.00005  -0.00005   1.81970
    R7        1.82188  -0.00011  -0.00001  -0.00021  -0.00022   1.82166
    R8        3.97762  -0.00997   0.00097  -0.00077   0.00019   3.97781
    R9        4.55207   0.00364   0.00270   0.00920   0.01190   4.56397
   R10        3.71627   0.00159  -0.00058   0.00762   0.00704   3.72331
   R11        3.75657   0.00071  -0.00124   0.00215   0.00091   3.75748
   R12        3.69183   0.00093  -0.00116   0.00296   0.00179   3.69362
   R13        1.82851  -0.00044  -0.00002  -0.00084  -0.00085   1.82765
   R14        1.81854   0.00031   0.00005   0.00068   0.00073   1.81927
   R15        1.82139   0.00020   0.00000   0.00038   0.00038   1.82177
   R16        1.81497   0.00001  -0.00001  -0.00001  -0.00002   1.81495
    A1        1.87807  -0.00011   0.00004   0.00105   0.00109   1.87916
    A2        2.06917   0.00157   0.00002  -0.00133  -0.00131   2.06786
    A3        2.12097   0.00036  -0.00017  -0.00294  -0.00310   2.11788
    A4        1.82172   0.00070  -0.00034  -0.00119  -0.00153   1.82019
    A5        1.96522   0.00307  -0.00004  -0.00062  -0.00065   1.96457
    A6        2.28361  -0.00022   0.00013   0.00195   0.00206   2.28567
    A7        1.96247   0.00084  -0.00038  -0.00163  -0.00200   1.96047
    A8        1.76053  -0.00655   0.00065   0.00359   0.00424   1.76477
    A9        2.02198   0.00005   0.00001   0.00035   0.00036   2.02234
[...]
 ! A18   A(4,5,14)             100.0472         -DE/DX =    0.0025              !
 ! A19   A(8,5,10)              88.5285         -DE/DX =    0.0009              !
 ! A20   A(8,5,12)              75.5941         -DE/DX =    0.0008              !
 ! A21   A(10,5,12)            114.4217         -DE/DX =    0.0                 !
 ! A22   A(10,5,14)            104.7489         -DE/DX =    0.0002              !
 ! A23   A(12,5,14)            103.0969         -DE/DX =   -0.0002              !
 ! A24   A(1,8,9)              116.9623         -DE/DX =    0.0003              !
 ! A25   A(5,8,9)              110.8468         -DE/DX =    0.0004              !
 ! A26   A(5,10,11)            130.0014         -DE/DX =    0.0                 !
 ! A27   A(5,12,13)            125.1969         -DE/DX =    0.0                 !
 ! A28   A(5,14,15)            148.3772         -DE/DX =    0.0                 !
 ! A29   L(8,5,14,4,-1)        168.9061         -DE/DX =   -0.0016              !
 ! A30   L(8,5,14,4,-2)        170.4875         -DE/DX =   -0.0004              !
 ! D1    D(3,1,2,6)            -33.3889         -DE/DX =   -0.0008              !
 ! D2    D(4,1,2,6)             97.0479         -DE/DX =    0.0042              !
 ! D3    D(5,1,2,6)            149.5838         -DE/DX =   -0.0014              !
 ! D4    D(8,1,2,6)           -153.0737         -DE/DX =   -0.002               !
 ! D5    D(2,1,3,7)            150.7332         -DE/DX =    0.0005              !
 ! D6    D(4,1,3,7)             17.3834         -DE/DX =   -0.0035              !
 ! D7    D(5,1,3,7)            -32.7149         -DE/DX =    0.0013              !
 ! D8    D(8,1,3,7)            -95.0576         -DE/DX =    0.0017              !
 ! D9    D(2,1,5,10)           148.9709         -DE/DX =    0.0007              !
 ! D10   D(2,1,5,12)            31.3055         -DE/DX =    0.0003              !
 ! D11   D(2,1,5,14)           -82.3308         -DE/DX =    0.0002              !
 ! D12   D(3,1,5,10)           -27.2339         -DE/DX =   -0.0001              !
 ! D13   D(3,1,5,12)          -144.8993         -DE/DX =   -0.0005              !
 ! D14   D(3,1,5,14)           101.4644         -DE/DX =   -0.0007              !
 ! D15   D(2,1,8,9)             -4.0074         -DE/DX =    0.0003              !
 ! D16   D(3,1,8,9)           -120.5644         -DE/DX =   -0.0001              !
 ! D17   D(4,1,8,9)            119.0258         -DE/DX =   -0.0004              !
 ! D18   D(4,5,8,9)           -123.5165         -DE/DX =    0.0002              !
 ! D19   D(10,5,8,9)           119.6962         -DE/DX =   -0.0002              !
 ! D20   D(12,5,8,9)             3.9993         -DE/DX =    0.0002              !
 ! D21   D(9,8,14,15)          -87.6168         -DE/DX =    0.0                 !
 ! D22   D(1,5,10,11)          -61.8987         -DE/DX =   -0.0012              !
 ! D23   D(4,5,10,11)          -96.653          -DE/DX =    0.0028              !
 ! D24   D(8,5,10,11)          -30.6899         -DE/DX =   -0.0013              !
 ! D25   D(12,5,10,11)          42.7517         -DE/DX =    0.0                 !
 ! D26   D(14,5,10,11)         154.8924         -DE/DX =   -0.0002              !
 ! D27   D(1,5,12,13)         -143.7189         -DE/DX =    0.0007              !
 ! D28   D(4,5,12,13)         -116.7957         -DE/DX =   -0.0022              !
 ! D29   D(8,5,12,13)         -173.2433         -DE/DX =    0.0015              !
 ! D30   D(10,5,12,13)         105.1378         -DE/DX =    0.0001              !
 ! D31   D(14,5,12,13)          -7.9853         -DE/DX =    0.0                 !
 ! D32   D(1,5,14,15)           18.6312         -DE/DX =    0.0007              !
 ! D33   D(4,5,14,15)           29.3633         -DE/DX =   -0.0008              !
 ! D34   D(10,5,14,15)         147.9318         -DE/DX =    0.0001              !
 ! D35   D(12,5,14,15)         -92.0549         -DE/DX =    0.0001              !
 --------------------------------------------------------------------------------
 GradGradGradGradGradGradGradGradGradGradGradGradGradGradGradGradGradGrad

                          Input orientation:                          
 ---------------------------------------------------------------------
 Center     Atomic      Atomic             Coordinates (Angstroms)
 Number     Number       Type             X           Y           Z
 ---------------------------------------------------------------------
      1         14           0       -1.895927   -0.077506   -0.175490
      2          8           0       -2.657474    1.328304   -0.551511
      3          8           0       -3.028915   -1.269153   -0.123107
      4          8           0       -0.562244   -0.493887   -1.019779
      5         40           0        0.958008   -0.088985    0.388157
      6          1           0       -3.415453    1.254023   -1.140707
      7          1           0       -2.697860   -2.145448   -0.351301
      8          8           0       -1.201191    0.223705    1.341912
      9          1           0       -1.294402    1.119369    1.697361
     10          8           0        1.266032   -1.539119    1.687296
     11          1           0        0.928334   -1.650531    2.582307
     12          8           0        1.021389    1.744233    1.168830
     13          1           0        1.747444    2.369028    1.061406
     14          8           0        2.520877   -0.126952   -0.778206
     15          1           0        2.891724    0.012000   -1.652319
 ---------------------------------------------------------------------
                    Distance matrix (angstroms):
                    1          2          3          4          5
     1  Si   0.000000
     2  O    1.642451   0.000000
     3  O    1.645123   2.658623   0.000000
     4  O    1.632454   2.815962   2.736699   0.000000
     5  Zr   2.909085   3.995422   4.189241   2.111255   0.000000
     6  H    2.239101   0.962913   2.747969   3.348225   4.823718
     7  H    2.224947   3.479750   0.964139   2.781253   4.259249
     8  O    1.695846   2.631719   2.777675   2.549662   2.381085
     9  H    2.302588   2.638000   3.468094   3.243687   2.871844
    10  O    3.950224   5.350539   4.668727   3.429775   1.971174
    11  H    4.249271   5.617143   4.808797   4.066285   2.693251
    12  O    3.692785   4.082475   5.211003   3.508145   1.993528
    13  H    4.559560   4.804988   6.119888   4.226378   2.668014
    14  O    4.458012   5.383724   5.703856   3.114264   1.950488
    15  H    5.011051   5.808445   6.247704   3.547665   2.813005
                    6          7          8          9         10
     6  H    0.000000
     7  H    3.562934   0.000000
     8  O    3.482514   3.274121   0.000000
     9  H    3.545648   4.101918   0.968115   0.000000
    10  O    6.141298   4.498438   3.051890   3.691000   0.000000
    11  H    6.416054   4.690445   3.096162   3.660059   0.963067
    12  O    5.025916   5.592246   2.698486   2.456154   3.333025
    13  H    5.722590   6.491298   3.657258   3.349464   3.987118
    14  O    6.105613   5.611754   4.297866   4.715730   3.106051
    15  H    6.448631   6.131123   5.075647   5.474512   4.025155
                   11         12         13         14         15
    11  H    0.000000
    12  O    3.678451   0.000000
    13  H    4.375035   0.963880   0.000000
    14  O    4.018773   3.088809   3.195667   0.000000
    15  H    4.954893   3.802323   3.772170   0.959640   0.000000
 Stoichiometry    H6O7SiZr
 Framework group  C1[X(H6O7SiZr)]
 Deg. of freedom    39
 Full point group                 C1      NOp   1
 Largest Abelian subgroup         C1      NOp   1
 Largest concise Abelian subgroup C1      NOp   1
                         Standard orientation:                         
 ---------------------------------------------------------------------
 Center     Atomic      Atomic             Coordinates (Angstroms)
 Number     Number       Type             X           Y           Z
 ---------------------------------------------------------------------
      1         14           0       -1.843825   -0.024204   -0.143238
      2          8           0       -2.659289    1.399784   -0.213389
      3          8           0       -2.950869   -1.238859   -0.069089
      4          8           0       -0.657561   -0.299802   -1.230312
      5         40           0        1.063193   -0.040575   -0.034817
      6          1           0       -3.499969    1.382861   -0.682614
      7          1           0       -2.656892   -2.071481   -0.456235
      8          8           0       -0.920919    0.099268    1.274116
      9          1           0       -0.960115    0.940560    1.751544
     10          8           0        1.575478   -1.635428    1.004190
     11          1           0        1.382502   -1.866600    1.918968
     12          8           0        1.242318    1.680540    0.955045
     13          1           0        1.940614    2.330538    0.817387
     14          8           0        2.424171    0.105038   -1.424400
     15          1           0        2.653073    0.361655   -2.320313
 ---------------------------------------------------------------------
 Rotational constants (GHZ):           1.7401609           0.6405135           0.6143162

 **********************************************************************

            Population analysis using the SCF Density.

 **********************************************************************

 Orbital symmetries:
       Occupied  (A) (A) (A) (A) (A) (A) (A) (A) (A) (A) (A) (A)
                 (A) (A) (A) (A) (A) (A) (A) (A) (A) (A) (A) (A)
                 (A) (A) (A) (A) (A) (A) (A) (A) (A) (A) (A) (A)
                 (A) (A) (A) (A) (A) (A) (A) (A)
       Virtual   (A) (A) (A) (A) (A) (A) (A) (A) (A) (A) (A) (A)
                 (A) (A) (A) (A) (A) (A) (A) (A) (A) (A) (A) (A)
                 (A) (A) (A) (A) (A) (A) (A) (A) (A) (A) (A) (A)
                 (A) (A) (A) (A) (A) (A) (A) (A) (A) (A) (A) (A)
                 (A) (A) (A) (A) (A) (A) (A) (A) (A) (A) (A) (A)
                 (A) (A) (A) (A) (A) (A) (A) (A) (A) (A) (A) (A)
                 (A) (A) (A) (A) (A) (A) (A) (A) (A) (A) (A) (A)
                 (A) (A) (A) (A) (A) (A) (A) (A) (A) (A) (A) (A)
                 (A) (A) (A) (A) (A) (A) (A) (A) (A) (A) (A) (A)
                 (A) (A) (A) (A) (A) (A) (A) (A) (A) (A) (A) (A)
                 (A) (A) (A) (A)
 The electronic state is 1-A.
 Alpha  occ. eigenvalues --  -66.20169 -19.18288 -19.15679 -19.15657 -19.13457
 Alpha  occ. eigenvalues --  -19.13153 -19.12821 -19.12480  -5.34569  -3.70593
 Alpha  occ. eigenvalues --   -3.70487  -3.70396  -2.05850  -1.26735  -1.26280
 Alpha  occ. eigenvalues --   -1.25895  -1.04630  -1.01635  -1.00309  -0.95103
 Alpha  occ. eigenvalues --   -0.94480  -0.93845  -0.93033  -0.58886  -0.54420
 Alpha  occ. eigenvalues --   -0.52660  -0.48532  -0.47113  -0.46259  -0.43076
 Alpha  occ. eigenvalues --   -0.41163  -0.40168  -0.38290  -0.36177  -0.34794
 Alpha  occ. eigenvalues --   -0.34505  -0.33869  -0.33673  -0.32784  -0.31586
 Alpha  occ. eigenvalues --   -0.30730  -0.30413  -0.30002  -0.29494
 Alpha virt. eigenvalues --   -0.01747  -0.01538  -0.00447   0.00621   0.01468
 Alpha virt. eigenvalues --    0.02365   0.02553   0.03319   0.05393   0.08160
 Alpha virt. eigenvalues --    0.09239   0.12407   0.14092   0.14623   0.16556
 Alpha virt. eigenvalues --    0.16910   0.17915   0.18664   0.19699   0.22997
 Alpha virt. eigenvalues --    0.24558   0.24651   0.25473   0.26410   0.29019
 Alpha virt. eigenvalues --    0.30647   0.30986   0.32852   0.37254   0.38454
 Alpha virt. eigenvalues --    0.41364   0.55300   0.61901   0.74214   0.78733
 Alpha virt. eigenvalues --    0.80239   0.83786   0.84909   0.88070   0.89867
 Alpha virt. eigenvalues --    0.90500   0.90984   0.92961   0.93576   0.95921
 Alpha virt. eigenvalues --    0.97335   0.98039   0.99618   1.03175   1.03321
 Alpha virt. eigenvalues --    1.05942   1.07663   1.08272   1.10435   1.11775
 Alpha virt. eigenvalues --    1.13707   1.14633   1.18602   1.19506   1.21450
 Alpha virt. eigenvalues --    1.22885   1.27533   1.31528   1.40986   1.47283
 Alpha virt. eigenvalues --    1.47368   1.50211   1.51933   1.54506   1.56569
 Alpha virt. eigenvalues --    1.57206   1.58107   1.59524   1.60057   1.61898
 Alpha virt. eigenvalues --    1.62858   1.65555   1.68176   1.69638   1.71113
 Alpha virt. eigenvalues --    1.73459   1.74896   1.79165   1.80960   1.82229
 Alpha virt. eigenvalues --    1.82397   1.84099   1.84718   1.87172   1.87883
 Alpha virt. eigenvalues --    1.90746   1.92722   1.99974   2.08616   2.13359
 Alpha virt. eigenvalues --    2.34046   2.35254   2.36138   2.37156   2.39081
 Alpha virt. eigenvalues --    2.40119   2.42512   2.54791   2.58466   2.61043
 Alpha virt. eigenvalues --    2.62733   2.63812   2.63874   2.64447   2.64836
 Alpha virt. eigenvalues --    2.65241   2.65802   2.66074   2.66471   2.71455
 Alpha virt. eigenvalues --    2.76841   2.81231   3.40468   3.41584   3.42338
 Alpha virt. eigenvalues --    3.44140   3.45703   3.47002   4.56651
          Condensed to atoms (all electrons):
               1          2          3          4          5          6
     1  Si  11.592689   0.382969   0.392720   0.344921  -0.105803  -0.022745
     2  O    0.382969   7.957189  -0.019741  -0.010955   0.007340   0.304893
     3  O    0.392720  -0.019741   7.943008  -0.016927   0.001829  -0.001003
     4  O    0.344921  -0.010955  -0.016927   8.242483   0.202639  -0.000354
     5  Zr  -0.105803   0.007340   0.001829   0.202639   9.809832  -0.000774
     6  H   -0.022745   0.304893  -0.001003  -0.000354  -0.000774   0.378703
     7  H   -0.016826   0.000350   0.301829   0.000958  -0.003277  -0.000048
     8  O    0.247886  -0.019945  -0.012975  -0.034943   0.086133   0.000676
     9  H   -0.007981   0.001426  -0.000240   0.000425  -0.012045   0.000012
    10  O   -0.008715  -0.000000   0.000000   0.000050   0.227471  -0.000000
    11  H    0.000073  -0.000000  -0.000000  -0.000039  -0.018029   0.000000
    12  O   -0.010059  -0.000011  -0.000000   0.000161   0.231295   0.000001
    13  H    0.000555  -0.000003   0.000000  -0.000004  -0.019231  -0.000000
    14  O   -0.001860   0.000000  -0.000000   0.000006   0.213229   0.000000
    15  H    0.000069  -0.000000  -0.000000  -0.000379  -0.016086   0.000000
               7          8          9         10         11         12
     1  Si  -0.016826   0.247886  -0.007981  -0.008715   0.000073  -0.010059
     2  O    0.000350  -0.019945   0.001426  -0.000000  -0.000000  -0.000011
     3  O    0.301829  -0.012975  -0.000240   0.000000  -0.000000  -0.000000
     4  O    0.000958  -0.034943   0.000425   0.000050  -0.000039   0.000161
     5  Zr  -0.003277   0.086133  -0.012045   0.227471  -0.018029   0.231295
     6  H   -0.000048   0.000676   0.000012  -0.000000   0.000000   0.000001
     7  H    0.380361  -0.000040   0.000047   0.000004   0.000000  -0.000000
     8  O   -0.000040   8.110942   0.296553  -0.003535  -0.000931  -0.011759
     9  H    0.000047   0.296553   0.341451  -0.000365  -0.000058   0.003848
    10  O    0.000004  -0.003535  -0.000365   8.173887   0.293824   0.000557
    11  H    0.000000  -0.000931  -0.000058   0.293824   0.396963  -0.000377
    12  O   -0.000000  -0.011759   0.003848   0.000557  -0.000377   8.199297
    13  H    0.000000   0.000450  -0.000100  -0.000092  -0.000000   0.292846
    14  O   -0.000000  -0.000144   0.000026   0.001045   0.000030  -0.000018
    15  H    0.000000   0.000005   0.000000  -0.000002  -0.000002  -0.000279
              13         14         15
     1  Si   0.000555  -0.001860   0.000069
     2  O   -0.000003   0.000000  -0.000000
     3  O    0.000000  -0.000000  -0.000000
     4  O   -0.000004   0.000006  -0.000379
     5  Zr  -0.019231   0.213229  -0.016086
     6  H   -0.000000   0.000000   0.000000
     7  H    0.000000  -0.000000   0.000000
     8  O    0.000450  -0.000144   0.000005
     9  H   -0.000100   0.000026   0.000000
    10  O   -0.000092   0.001045  -0.000002
    11  H   -0.000000   0.000030  -0.000002
    12  O    0.292846  -0.000018  -0.000279
    13  H    0.398574  -0.002059  -0.000019
    14  O   -0.002059   8.171263   0.300398
    15  H   -0.000019   0.300398   0.385822
 Mulliken charges:
               1
     1  Si   1.212108
     2  O   -0.603511
     3  O   -0.588499
     4  O   -0.728042
     5  Zr   1.395477
     6  H    0.340639
     7  H    0.336643
     8  O   -0.658374
     9  H    0.377001
    10  O   -0.684129
    11  H    0.328548
    12  O   -0.705501
    13  H    0.329082
    14  O   -0.681915
    15  H    0.330474
 Sum of Mulliken charges =  -0.00000
 Mulliken charges with hydrogens summed into heavy atoms:
               1
     1  Si   1.212108
     2  O   -0.262872
     3  O   -0.251856
     4  O   -0.728042
     5  Zr   1.395477
     8  O   -0.281373
    10  O   -0.355581
    12  O   -0.376419
    14  O   -0.351442
 Electronic spatial extent (au):  <R**2>=           1832.4251
 Charge=              0.0000 electrons
 Dipole moment (field-independent basis, Debye):
    X=             -0.9114    Y=              1.0554    Z=             -0.0664  Tot=              1.3961
 Quadrupole moment (field-independent basis, Debye-Ang):
   XX=            -70.3850   YY=            -70.4324   ZZ=            -67.9453
   XY=              5.1721   XZ=              1.1244   YZ=             -1.7454
 Traceless Quadrupole moment (field-independent basis, Debye-Ang):
   XX=             -0.7974   YY=             -0.8448   ZZ=              1.6422
   XY=              5.1721   XZ=              1.1244   YZ=             -1.7454
 Octapole moment (field-independent basis, Debye-Ang**2):
  XXX=              5.5710  YYY=             -4.6888  ZZZ=              1.2808  XYY=              4.2250
  XXY=             27.9826  XXZ=            -24.0926  XZZ=             21.4776  YZZ=             -0.1055
  YYZ=              0.6523  XYZ=             -6.2659
 Hexadecapole moment (field-independent basis, Debye-Ang**3):
 XXXX=          -1376.5551 YYYY=           -386.7833 ZZZZ=           -292.7454 XXXY=            -20.1928
 XXXZ=             44.7248 YYYX=             72.6437 YYYZ=              3.1584 ZZZX=            -42.2293
 ZZZY=            -26.4949 XXYY=           -269.3472 XXZZ=           -242.4327 YYZZ=           -110.6294
 XXYZ=             -7.1886 YYXZ=             20.3360 ZZXY=            -11.1729
 N-N= 6.692663776297D+02 E-N=-3.374604891123D+03  KE= 8.297773343177D+02
 1\1\GINC-GRA602\FOpt\RB3LYP\Gen\H6O7Si1Zr1\SARASHS\24-Jun-2020\0\\#n B
 3LYP/GEN PSEUDO=READ Opt(modredundant)\\Title\\0,1\Si,-1.8959270875,-0
 .077505968,-0.1754897808\O,-2.6574744388,1.3283036633,-0.5515107311\O,
 -3.028915431,-1.2691526097,-0.1231065246\O,-0.562244458,-0.4938871039,
 -1.0197791088\Zr,0.9580079334,-0.0889851514,0.3881573253\H,-3.41545302
 85,1.2540229024,-1.1407066676\H,-2.6978595288,-2.1454476381,-0.3513007
 326\O,-1.201191249,0.223705373,1.3419115816\H,-1.2944022298,1.11936878
 63,1.6973614103\O,1.2660322252,-1.5391190741,1.6872955896\H,0.92833366
 45,-1.6505313585,2.5823068707\O,1.0213892198,1.744232537,1.1688295904\
 H,1.7474435431,2.3690277848,1.0614064027\O,2.5208771281,-0.1269519631,
 -0.7782059882\H,2.8917237372,0.0119998199,-1.6523192368\\Version=ES64L
 -G16RevB.01\State=1-A\HF=-866.6859538\RMSD=4.678e-09\RMSF=4.258e-03\Di
 pole=-0.3404862,0.4095901,-0.1341184\Quadrupole=-0.6200062,-0.9522663,
 1.5722725,4.0311807,-0.0065053,-0.3944454\PG=C01 [X(H6O7Si1Zr1)]\\@


 Until you make peace with who you are,
 you'll never be content with what you have.
                           -- Doris Mortman
 Job cpu time:       0 days  2 hours 56 minutes 34.8 seconds.
 Elapsed time:       0 days  0 hours 11 minutes 28.7 seconds.
 File lengths (MBytes):  RWF=     23 Int=      0 D2E=      0 Chk=      3 Scr=      1
 Normal termination of Gaussian 16 at Wed Jun 24 14:02:06 2020.
