 Entering Gaussian System, Link 0=g16
 Initial command:
 /opt/software/gaussian/g16.b01/l1.exe "/localscratch/sarashs.33453158.0/Gau-6895.inp" -scrdir="/localscratch/sarashs.33453158.0/"
 Entering Link 1 = /opt/software/gaussian/g16.b01/l1.exe PID=      6899.
  
 Copyright (c) 1988-2017, Gaussian, Inc.  All Rights Reserved.
  
 This is part of the Gaussian(R) 16 program.  It is based on
 the Gaussian(R) 09 system (copyright 2009, Gaussian, Inc.),
 the Gaussian(R) 03 system (copyright 2003, Gaussian, Inc.),
 the Gaussian(R) 98 system (copyright 1998, Gaussian, Inc.),
 the Gaussian(R) 94 system (copyright 1995, Gaussian, Inc.),
 the Gaussian 92(TM) system (copyright 1992, Gaussian, Inc.),
 the Gaussian 90(TM) system (copyright 1990, Gaussian, Inc.),
 the Gaussian 88(TM) system (copyright 1988, Gaussian, Inc.),
 the Gaussian 86(TM) system (copyright 1986, Carnegie Mellon
 University), and the Gaussian 82(TM) system (copyright 1983,
 Carnegie Mellon University). Gaussian is a federally registered
 trademark of Gaussian, Inc.
  
 This software contains proprietary and confidential information,
 including trade secrets, belonging to Gaussian, Inc.
  
 This software is provided under written license and may be
 used, copied, transmitted, or stored only in accord with that
 written license.
  
 The following legend is applicable only to US Government
 contracts under FAR:
  
                    RESTRICTED RIGHTS LEGEND
  
 Use, reproduction and disclosure by the US Government is
 subject to restrictions as set forth in subparagraphs (a)
 and (c) of the Commercial Computer Software - Restricted
 Rights clause in FAR 52.227-19.
  
 Gaussian, Inc.
 340 Quinnipiac St., Bldg. 40, Wallingford CT 06492
  
  
 ---------------------------------------------------------------
 Warning -- This program may not be used in any manner that
 competes with the business of Gaussian, Inc. or will provide
 assistance to any competitor of Gaussian, Inc.  The licensee
 of this program is prohibited from giving any competitor of
 Gaussian, Inc. access to this program.  By using this program,
 the user acknowledges that Gaussian, Inc. is engaged in the
 business of creating and licensing software in the field of
 computational chemistry and represents and warrants to the
 licensee that it is not a competitor of Gaussian, Inc. and that
 it will not use this program in any manner prohibited above.
 ---------------------------------------------------------------
  

 Cite this work as:
 Gaussian 16, Revision B.01,
 M. J. Frisch, G. W. Trucks, H. B. Schlegel, G. E. Scuseria, 
 M. A. Robb, J. R. Cheeseman, G. Scalmani, V. Barone, 
 G. A. Petersson, H. Nakatsuji, X. Li, M. Caricato, A. V. Marenich, 
 J. Bloino, B. G. Janesko, R. Gomperts, B. Mennucci, H. P. Hratchian, 
 J. V. Ortiz, A. F. Izmaylov, J. L. Sonnenberg, D. Williams-Young, 
 F. Ding, F. Lipparini, F. Egidi, J. Goings, B. Peng, A. Petrone, 
 T. Henderson, D. Ranasinghe, V. G. Zakrzewski, J. Gao, N. Rega, 
 G. Zheng, W. Liang, M. Hada, M. Ehara, K. Toyota, R. Fukuda, 
 J. Hasegawa, M. Ishida, T. Nakajima, Y. Honda, O. Kitao, H. Nakai, 
 T. Vreven, K. Throssell, J. A. Montgomery, Jr., J. E. Peralta, 
 F. Ogliaro, M. J. Bearpark, J. J. Heyd, E. N. Brothers, K. N. Kudin, 
 V. N. Staroverov, T. A. Keith, R. Kobayashi, J. Normand, 
 K. Raghavachari, A. P. Rendell, J. C. Burant, S. S. Iyengar, 
 J. Tomasi, M. Cossi, J. M. Millam, M. Klene, C. Adamo, R. Cammi, 
 J. W. Ochterski, R. L. Martin, K. Morokuma, O. Farkas, 
 J. B. Foresman, and D. J. Fox, Gaussian, Inc., Wallingford CT, 2016.
 
 ******************************************
 Gaussian 16:  ES64L-G16RevB.01 20-Dec-2017
                24-Jun-2020 
 ******************************************
 %NProcShared=16
 Will use up to   16 processors via shared memory.
 ------------------------------------------
 #n B3LYP/GEN PSEUDO=READ Opt(modredundant)
 ------------------------------------------
 1/18=120,19=15,26=3,38=1/1,3;
 2/9=110,12=2,17=6,18=5,40=1/2;
 3/5=7,11=2,16=1,17=8,25=1,30=1,71=1,74=-5/1,2,3;
 4//1;
 5/5=2,38=5/2;
 6/7=2,8=2,9=2,10=2,28=1/1;
 7//1,2,3,16;
 1/18=20,19=15,26=3/3(2);
 2/9=110/2;
 99//99;
 2/9=110/2;
 3/5=7,6=1,11=2,16=1,17=8,25=1,30=1,71=1,74=-5,82=7/1,2,3;
 4/5=5,16=3,69=1/1;
 5/5=2,38=5/2;
 7//1,2,3,16;
 1/18=20,19=15,26=3/3(-5);
 2/9=110/2;
 6/7=2,8=2,9=2,10=2,19=2,28=1/1;
 99/9=1/99;
 -----
 Title
 -----
 Symbolic Z-matrix:
 Charge =  0 Multiplicity = 1
 Si                   -1.90698  -0.04093  -0.13187 
 O                    -2.77661   1.33183  -0.36828 
 O                    -2.96472  -1.30138  -0.09409 
 O                    -0.62539  -0.3216   -1.09659 
 Zr                    1.33713  -0.07542  -0.55517 
 H                    -3.57833   1.23701  -0.89318 
 H                    -2.59505  -2.1428   -0.38501 
 O                    -1.07346   0.19403   1.32035 
 H                    -1.20745   1.04108   1.76425 
 O                     2.01252  -1.53366   0.58191 
 H                     2.01068  -1.66651   1.53517 
 O                     1.7581    1.74165   0.11675 
 H                     2.3631    2.38363  -0.27133 
 O                     2.34695  -0.24517  -2.22053 
 H                     3.01124  -0.78937  -2.651 
 
 The following ModRedundant input section has been read:
 A       1       4       5 F                                                   
 

 GradGradGradGradGradGradGradGradGradGradGradGradGradGradGradGradGradGrad
 Berny optimization.
 Initialization pass.
                           ----------------------------
                           !    Initial Parameters    !
                           ! (Angstroms and Degrees)  !
 --------------------------                            --------------------------
 ! Name  Definition              Value          Derivative Info.                !
 --------------------------------------------------------------------------------
 ! R1    R(1,2)                  1.6421         estimate D2E/DX2                !
 ! R2    R(1,3)                  1.6459         estimate D2E/DX2                !
 ! R3    R(1,4)                  1.6285         estimate D2E/DX2                !
 ! R4    R(1,8)                  1.6908         estimate D2E/DX2                !
 ! R5    R(2,6)                  0.9629         estimate D2E/DX2                !
 ! R6    R(3,7)                  0.964          estimate D2E/DX2                !
 ! R7    R(4,5)                  2.0507         estimate D2E/DX2                !
 ! R8    R(5,10)                 1.9686         estimate D2E/DX2                !
 ! R9    R(5,12)                 1.9825         estimate D2E/DX2                !
 ! R10   R(5,14)                 1.955          estimate D2E/DX2                !
 ! R11   R(8,9)                  0.9657         estimate D2E/DX2                !
 ! R12   R(10,11)                0.9625         estimate D2E/DX2                !
 ! R13   R(12,13)                0.9637         estimate D2E/DX2                !
 ! R14   R(14,15)                0.9606         estimate D2E/DX2                !
 ! A1    A(2,1,3)              107.6477         estimate D2E/DX2                !
 ! A2    A(2,1,4)              118.3958         estimate D2E/DX2                !
 ! A3    A(2,1,8)              105.5776         estimate D2E/DX2                !
 ! A4    A(3,1,4)              112.7909         estimate D2E/DX2                !
 ! A5    A(3,1,8)              113.7977         estimate D2E/DX2                !
 ! A6    A(4,1,8)               98.3257         estimate D2E/DX2                !
 ! A7    A(1,2,6)              115.9167         estimate D2E/DX2                !
 ! A8    A(1,3,7)              114.5237         estimate D2E/DX2                !
 ! A9    A(1,4,5)              125.174          Frozen                          !
 ! A10   A(4,5,10)             113.0728         estimate D2E/DX2                !
 ! A11   A(4,5,12)             113.7486         estimate D2E/DX2                !
 ! A12   A(4,5,14)             105.0108         estimate D2E/DX2                !
 ! A13   A(10,5,12)            114.224          estimate D2E/DX2                !
 ! A14   A(10,5,14)            104.507          estimate D2E/DX2                !
 ! A15   A(12,5,14)            104.9877         estimate D2E/DX2                !
 ! A16   A(1,8,9)              116.6352         estimate D2E/DX2                !
 ! A17   A(5,10,11)            132.3496         estimate D2E/DX2                !
 ! A18   A(5,12,13)            127.3995         estimate D2E/DX2                !
 ! A19   A(5,14,15)            142.0117         estimate D2E/DX2                !
 ! D1    D(3,1,2,6)            -31.5445         estimate D2E/DX2                !
 ! D2    D(4,1,2,6)             97.8074         estimate D2E/DX2                !
 ! D3    D(8,1,2,6)           -153.4334         estimate D2E/DX2                !
 ! D4    D(2,1,3,7)            151.7162         estimate D2E/DX2                !
 ! D5    D(4,1,3,7)             19.2636         estimate D2E/DX2                !
 ! D6    D(8,1,3,7)            -91.6497         estimate D2E/DX2                !
 ! D7    D(2,1,4,5)            103.7173         estimate D2E/DX2                !
 ! D8    D(3,1,4,5)           -129.344          estimate D2E/DX2                !
 ! D9    D(8,1,4,5)             -9.0902         estimate D2E/DX2                !
 ! D10   D(2,1,8,9)             -0.7356         estimate D2E/DX2                !
 ! D11   D(3,1,8,9)           -118.5698         estimate D2E/DX2                !
 ! D12   D(4,1,8,9)            121.931          estimate D2E/DX2                !
 ! D13   D(1,4,5,10)            76.9139         estimate D2E/DX2                !
 ! D14   D(1,4,5,12)           -55.5138         estimate D2E/DX2                !
 ! D15   D(1,4,5,14)          -169.75           estimate D2E/DX2                !
 ! D16   D(4,5,10,11)          -88.2377         estimate D2E/DX2                !
 ! D17   D(12,5,10,11)          43.9577         estimate D2E/DX2                !
 ! D18   D(14,5,10,11)         158.1208         estimate D2E/DX2                !
 ! D19   D(4,5,12,13)         -116.9751         estimate D2E/DX2                !
 ! D20   D(10,5,12,13)         111.1542         estimate D2E/DX2                !
 ! D21   D(14,5,12,13)          -2.7251         estimate D2E/DX2                !
 ! D22   D(4,5,14,15)         -117.1586         estimate D2E/DX2                !
 ! D23   D(10,5,14,15)           2.0829         estimate D2E/DX2                !
 ! D24   D(12,5,14,15)         122.6146         estimate D2E/DX2                !
 --------------------------------------------------------------------------------
 Trust Radius=3.00D-01 FncErr=1.00D-07 GrdErr=1.00D-06 EigMax=2.50D+02 EigMin=1.00D-04
 Number of steps in this run=     67 maximum allowed number of steps=    100.
 GradGradGradGradGradGradGradGradGradGradGradGradGradGradGradGradGradGrad

                          Input orientation:                          
 ---------------------------------------------------------------------
 Center     Atomic      Atomic             Coordinates (Angstroms)
 Number     Number       Type             X           Y           Z
 ---------------------------------------------------------------------
      1         14           0       -1.906980   -0.040930   -0.131870
      2          8           0       -2.776610    1.331830   -0.368280
      3          8           0       -2.964720   -1.301380   -0.094090
      4          8           0       -0.625390   -0.321600   -1.096590
      5         40           0        1.337130   -0.075420   -0.555170
      6          1           0       -3.578330    1.237010   -0.893180
      7          1           0       -2.595050   -2.142800   -0.385010
      8          8           0       -1.073460    0.194030    1.320350
      9          1           0       -1.207450    1.041080    1.764250
     10          8           0        2.012520   -1.533660    0.581910
     11          1           0        2.010680   -1.666510    1.535170
     12          8           0        1.758100    1.741650    0.116750
     13          1           0        2.363100    2.383630   -0.271330
     14          8           0        2.346950   -0.245170   -2.220530
     15          1           0        3.011240   -0.789370   -2.651000
 ---------------------------------------------------------------------
                    Distance matrix (angstroms):
                    1          2          3          4          5
     1  Si   0.000000
     2  O    1.642138   0.000000
     3  O    1.645897   2.654121   0.000000
     4  O    1.628476   2.809273   2.727167   0.000000
     5  Zr   3.271792   4.351797   4.496831   2.050665   0.000000
     6  H    2.237439   0.962946   2.731023   3.345220   5.098870
     7  H    2.226068   3.479411   0.963991   2.775370   4.445791
     8  O    1.690830   2.654577   2.795310   2.511621   3.066125
     9  H    2.292457   2.663547   3.468219   3.221816   3.619554
    10  O    4.254434   5.661242   5.028305   3.353360   1.968646
    11  H    4.557367   5.960815   5.248087   3.960279   2.711966
    12  O    4.083162   4.578952   5.622234   3.377902   1.982533
    13  H    4.912385   5.247123   6.480461   4.114656   2.679572
    14  O    4.743431   5.671739   5.818175   3.178661   1.954987
    15  H    5.576295   6.573394   6.520126   3.982471   2.775765
                    6          7          8          9         10
     6  H    0.000000
     7  H    3.556430   0.000000
     8  O    3.501699   3.268679   0.000000
     9  H    3.566706   4.084341   0.965657   0.000000
    10  O    6.411716   4.747177   3.612960   4.288988   0.000000
    11  H    6.750137   5.012653   3.608279   4.211874   0.962474
    12  O    5.454549   5.855820   3.444055   3.464035   3.317945
    13  H    6.082929   6.714517   4.374670   4.323755   4.024436
    14  O    6.250413   5.602990   4.942665   5.492419   3.102534
    15  H    7.114674   6.196529   5.781304   6.375133   3.464551
                   11         12         13         14         15
    11  H    0.000000
    12  O    3.700171   0.000000
    13  H    4.448739   0.963727   0.000000
    14  O    4.029711   3.123632   3.272649   0.000000
    15  H    4.392552   3.954347   4.018811   0.960593   0.000000
 Stoichiometry    H6O7SiZr
 Framework group  C1[X(H6O7SiZr)]
 Deg. of freedom    39
 Full point group                 C1      NOp   1
 Largest Abelian subgroup         C1      NOp   1
 Largest concise Abelian subgroup C1      NOp   1
                         Standard orientation:                         
 ---------------------------------------------------------------------
 Center     Atomic      Atomic             Coordinates (Angstroms)
 Number     Number       Type             X           Y           Z
 ---------------------------------------------------------------------
      1         14           0       -2.053931   -0.043819   -0.102132
      2          8           0       -2.904713    1.301349   -0.506249
      3          8           0       -3.081029   -1.327282   -0.184416
      4          8           0       -0.637469   -0.320023   -0.856638
      5         40           0        1.217070   -0.013479   -0.036916
      6          1           0       -3.617066    1.173748   -1.141494
      7          1           0       -2.655952   -2.167270   -0.391797
      8          8           0       -1.451343    0.249361    1.450233
      9          1           0       -1.666386    1.104595    1.843712
     10          8           0        1.742941   -1.424560    1.231105
     11          1           0        1.601292   -1.531893    2.177029
     12          8           0        1.497959    1.830276    0.635469
     13          1           0        2.141687    2.475675    0.322669
     14          8           0        2.467381   -0.203935   -1.527696
     15          1           0        3.198850   -0.743708   -1.838078
 ---------------------------------------------------------------------
 Rotational constants (GHZ):           1.7262386           0.5425114           0.5258609
 General basis read from cards:  (5D, 7F)
 ======================================================================================================
                                       Pseudopotential Parameters
 ======================================================================================================
  Center     Atomic      Valence      Angular      Power
  Number     Number     Electrons     Momentum     of R      Exponent        Coefficient   SO-Coeffient
 ======================================================================================================
    1         14
                                   No pseudopotential on this center.
    2          8
                                   No pseudopotential on this center.
    3          8
                                   No pseudopotential on this center.
    4          8
                                   No pseudopotential on this center.
    5         40           12
                                      F and up 
                                                     0      645.9321873       -0.04258430    0.00000000
                                                     1      134.7547401      -20.22224090    0.00000000
                                                     2       42.3074619     -101.86951720    0.00000000
                                                     2       12.0003227      -41.61957840    0.00000000
                                                     2        4.1260454       -4.69861600    0.00000000
                                      S - F
                                                     0      117.6251862        2.79105590    0.00000000
                                                     1       22.9646089       41.94894590    0.00000000
                                                     2        4.5225298       67.72718660    0.00000000
                                      P - F
                                                     0       47.1953145        4.99111440    0.00000000
                                                     1       48.0356033       20.71931720    0.00000000
                                                     2       19.4541456      195.58677580    0.00000000
                                                     2        4.0512875       48.28771760    0.00000000
                                      D - F
                                                     0       79.9073983        3.00492260    0.00000000
                                                     1       45.8263798       25.93779890    0.00000000
                                                     2       26.9903522      125.12449340    0.00000000
                                                     2        9.6835718       70.76340220    0.00000000
                                                     2        2.7995666       15.04928220    0.00000000
    6          1
                                   No pseudopotential on this center.
    7          1
                                   No pseudopotential on this center.
    8          8
                                   No pseudopotential on this center.
    9          1
                                   No pseudopotential on this center.
   10          8
                                   No pseudopotential on this center.
   11          1
                                   No pseudopotential on this center.
   12          8
                                   No pseudopotential on this center.
   13          1
                                   No pseudopotential on this center.
   14          8
                                   No pseudopotential on this center.
   15          1
                                   No pseudopotential on this center.
 ======================================================================================================
 There are   178 symmetry adapted cartesian basis functions of A   symmetry.
 There are   168 symmetry adapted basis functions of A   symmetry.
   168 basis functions,   339 primitive gaussians,   178 cartesian basis functions
    44 alpha electrons       44 beta electrons
       nuclear repulsion energy       646.2716888567 Hartrees.
 NAtoms=   15 NActive=   15 NUniq=   15 SFac= 1.00D+00 NAtFMM=   60 NAOKFM=F Big=F
 Integral buffers will be    131072 words long.
 Raffenetti 2 integral format.
 Two-electron integral symmetry is turned on.
 One-electron integrals computed using PRISM.
   1 Symmetry operations used in ECPInt.
 ECPInt:  NShTT=    1770 NPrTT=   10201 LenC2=    1644 LenP2D=    6614.
 LDataN:  DoStor=T MaxTD1= 5 Len=  102
 NBasis=   168 RedAO= T EigKep=  1.20D-02  NBF=   168
 NBsUse=   168 1.00D-06 EigRej= -1.00D+00 NBFU=   168
 Defaulting to unpruned grid for atomic number  40.
 ExpMin= 2.43D-02 ExpMax= 1.61D+04 ExpMxC= 2.43D+03 IAcc=3 IRadAn=         5 AccDes= 0.00D+00
 Harris functional with IExCor=  402 and IRadAn=       5 diagonalized for initial guess.
 HarFok:  IExCor=  402 AccDes= 0.00D+00 IRadAn=         5 IDoV= 1 UseB2=F ITyADJ=14
 ICtDFT=  3500011 ScaDFX=  1.000000  1.000000  1.000000  1.000000
 Defaulting to unpruned grid for atomic number  40.
 FoFCou: FMM=F IPFlag=           0 FMFlag=      100000 FMFlg1=           0
         NFxFlg=           0 DoJE=T BraDBF=F KetDBF=T FulRan=T
         wScrn=  0.000000 ICntrl=       500 IOpCl=  0 I1Cent=   200000004 NGrid=           0
         NMat0=    1 NMatS0=      1 NMatT0=    0 NMatD0=    1 NMtDS0=    0 NMtDT0=    0
 Petite list used in FoFCou.
 Requested convergence on RMS density matrix=1.00D-08 within 128 cycles.
 Requested convergence on MAX density matrix=1.00D-06.
 Requested convergence on             energy=1.00D-06.
 No special actions if energy rises.
 Defaulting to unpruned grid for atomic number  40.
 Defaulting to unpruned grid for atomic number  40.
 Defaulting to unpruned grid for atomic number  40.
 Defaulting to unpruned grid for atomic number  40.
 Defaulting to unpruned grid for atomic number  40.
 Defaulting to unpruned grid for atomic number  40.
 Defaulting to unpruned grid for atomic number  40.
 Defaulting to unpruned grid for atomic number  40.
 Defaulting to unpruned grid for atomic number  40.
 Defaulting to unpruned grid for atomic number  40.
 Defaulting to unpruned grid for atomic number  40.
 Defaulting to unpruned grid for atomic number  40.
 Defaulting to unpruned grid for atomic number  40.
 Defaulting to unpruned grid for atomic number  40.
 Defaulting to unpruned grid for atomic number  40.
 Defaulting to unpruned grid for atomic number  40.
 SCF Done:  E(RB3LYP) =  -866.683961686     A.U. after   14 cycles
            NFock= 14  Conv=0.84D-08     -V/T= 2.0446

 **********************************************************************

            Population analysis using the SCF Density.

 **********************************************************************

 Orbital symmetries:
       Occupied  (A) (A) (A) (A) (A) (A) (A) (A) (A) (A) (A) (A)
                 (A) (A) (A) (A) (A) (A) (A) (A) (A) (A) (A) (A)
                 (A) (A) (A) (A) (A) (A) (A) (A) (A) (A) (A) (A)
                 (A) (A) (A) (A) (A) (A) (A) (A)
       Virtual   (A) (A) (A) (A) (A) (A) (A) (A) (A) (A) (A) (A)
                 (A) (A) (A) (A) (A) (A) (A) (A) (A) (A) (A) (A)
                 (A) (A) (A) (A) (A) (A) (A) (A) (A) (A) (A) (A)
                 (A) (A) (A) (A) (A) (A) (A) (A) (A) (A) (A) (A)
                 (A) (A) (A) (A) (A) (A) (A) (A) (A) (A) (A) (A)
                 (A) (A) (A) (A) (A) (A) (A) (A) (A) (A) (A) (A)
                 (A) (A) (A) (A) (A) (A) (A) (A) (A) (A) (A) (A)
                 (A) (A) (A) (A) (A) (A) (A) (A) (A) (A) (A) (A)
                 (A) (A) (A) (A) (A) (A) (A) (A) (A) (A) (A) (A)
                 (A) (A) (A) (A) (A) (A) (A) (A) (A) (A) (A) (A)
                 (A) (A) (A) (A)
 The electronic state is 1-A.
 Alpha  occ. eigenvalues --  -66.19064 -19.14901 -19.14809 -19.14309 -19.14147
 Alpha  occ. eigenvalues --  -19.13785 -19.13583 -19.11847  -5.33344  -3.69329
 Alpha  occ. eigenvalues --   -3.69277  -3.69223  -2.06416  -1.27075  -1.26962
 Alpha  occ. eigenvalues --   -1.26407  -1.02457  -0.99552  -0.98823  -0.95712
 Alpha  occ. eigenvalues --   -0.95018  -0.94490  -0.92535  -0.56955  -0.51949
 Alpha  occ. eigenvalues --   -0.51180  -0.48623  -0.47623  -0.47032  -0.43457
 Alpha  occ. eigenvalues --   -0.38491  -0.37562  -0.36662  -0.35483  -0.34881
 Alpha  occ. eigenvalues --   -0.34271  -0.33487  -0.33187  -0.32106  -0.31906
 Alpha  occ. eigenvalues --   -0.31141  -0.30849  -0.29798  -0.29121
 Alpha virt. eigenvalues --   -0.02236  -0.01574  -0.00257   0.00479   0.01567
 Alpha virt. eigenvalues --    0.01848   0.02040   0.02732   0.03227   0.08526
 Alpha virt. eigenvalues --    0.09423   0.10846   0.14768   0.15122   0.16010
 Alpha virt. eigenvalues --    0.16963   0.18006   0.19373   0.19797   0.23203
 Alpha virt. eigenvalues --    0.23622   0.24158   0.24847   0.26554   0.28422
 Alpha virt. eigenvalues --    0.28905   0.30769   0.33407   0.37153   0.39333
 Alpha virt. eigenvalues --    0.42851   0.56959   0.64909   0.71989   0.79257
 Alpha virt. eigenvalues --    0.80517   0.83712   0.85446   0.86733   0.88896
 Alpha virt. eigenvalues --    0.91275   0.92306   0.93481   0.94863   0.95486
 Alpha virt. eigenvalues --    0.97745   0.99324   0.99474   1.00034   1.04713
 Alpha virt. eigenvalues --    1.05638   1.07562   1.08440   1.09526   1.11107
 Alpha virt. eigenvalues --    1.13579   1.17182   1.17555   1.20116   1.21043
 Alpha virt. eigenvalues --    1.24042   1.26078   1.26374   1.36719   1.46427
 Alpha virt. eigenvalues --    1.48052   1.49819   1.51825   1.53199   1.56986
 Alpha virt. eigenvalues --    1.57686   1.58452   1.60660   1.60944   1.63165
 Alpha virt. eigenvalues --    1.63783   1.64890   1.65903   1.69241   1.70340
 Alpha virt. eigenvalues --    1.72842   1.76532   1.79626   1.79899   1.81335
 Alpha virt. eigenvalues --    1.81827   1.83046   1.84747   1.86077   1.87828
 Alpha virt. eigenvalues --    1.90189   1.92857   2.01289   2.09120   2.13810
 Alpha virt. eigenvalues --    2.35975   2.36195   2.36673   2.37059   2.37960
 Alpha virt. eigenvalues --    2.39021   2.43557   2.56522   2.59961   2.61642
 Alpha virt. eigenvalues --    2.63202   2.63716   2.64384   2.64450   2.64565
 Alpha virt. eigenvalues --    2.64798   2.64885   2.65423   2.67279   2.72950
 Alpha virt. eigenvalues --    2.77588   2.82832   3.41101   3.41645   3.42838
 Alpha virt. eigenvalues --    3.43991   3.45013   3.46105   3.89384
          Condensed to atoms (all electrons):
               1          2          3          4          5          6
     1  Si  11.520978   0.387642   0.393872   0.349449  -0.061584  -0.021769
     2  O    0.387642   7.954319  -0.020262  -0.010356   0.002542   0.303666
     3  O    0.393872  -0.020262   7.946130  -0.016775  -0.001199  -0.000840
     4  O    0.349449  -0.010356  -0.016775   8.280370   0.186569  -0.000305
     5  Zr  -0.061584   0.002542  -0.001199   0.186569   9.740748  -0.000897
     6  H   -0.021769   0.303666  -0.000840  -0.000305  -0.000897   0.382888
     7  H   -0.019585   0.000387   0.301852   0.001179  -0.001965  -0.000043
     8  O    0.281393  -0.018789  -0.013308  -0.039883   0.090193   0.000622
     9  H   -0.014415   0.000736  -0.000163   0.001181  -0.007095   0.000025
    10  O   -0.003626  -0.000000   0.000001   0.000339   0.218894  -0.000000
    11  H    0.000005  -0.000000   0.000000  -0.000066  -0.015694   0.000000
    12  O   -0.003861   0.000003   0.000000   0.000473   0.221954   0.000000
    13  H    0.000176  -0.000001   0.000000  -0.000008  -0.017413  -0.000000
    14  O   -0.000152   0.000000   0.000000   0.000530   0.214875   0.000000
    15  H   -0.000029   0.000000  -0.000000  -0.000056  -0.015522  -0.000000
               7          8          9         10         11         12
     1  Si  -0.019585   0.281393  -0.014415  -0.003626   0.000005  -0.003861
     2  O    0.000387  -0.018789   0.000736  -0.000000  -0.000000   0.000003
     3  O    0.301852  -0.013308  -0.000163   0.000001   0.000000   0.000000
     4  O    0.001179  -0.039883   0.001181   0.000339  -0.000066   0.000473
     5  Zr  -0.001965   0.090193  -0.007095   0.218894  -0.015694   0.221954
     6  H   -0.000043   0.000622   0.000025  -0.000000   0.000000   0.000000
     7  H    0.384523  -0.000256   0.000049  -0.000000  -0.000000  -0.000000
     8  O   -0.000256   8.039328   0.296948  -0.000698  -0.000203  -0.001129
     9  H    0.000049   0.296948   0.381778  -0.000015   0.000002   0.000213
    10  O   -0.000000  -0.000698  -0.000015   8.180918   0.294369   0.000856
    11  H   -0.000000  -0.000203   0.000002   0.294369   0.389131  -0.000289
    12  O   -0.000000  -0.001129   0.000213   0.000856  -0.000289   8.182451
    13  H   -0.000000   0.000027  -0.000014  -0.000052  -0.000001   0.293074
    14  O   -0.000000  -0.000004   0.000001   0.000834  -0.000006   0.000543
    15  H    0.000000  -0.000000  -0.000000  -0.000576   0.000002  -0.000118
              13         14         15
     1  Si   0.000176  -0.000152  -0.000029
     2  O   -0.000001   0.000000   0.000000
     3  O    0.000000   0.000000  -0.000000
     4  O   -0.000008   0.000530  -0.000056
     5  Zr  -0.017413   0.214875  -0.015522
     6  H   -0.000000   0.000000  -0.000000
     7  H   -0.000000  -0.000000   0.000000
     8  O    0.000027  -0.000004  -0.000000
     9  H   -0.000014   0.000001  -0.000000
    10  O   -0.000052   0.000834  -0.000576
    11  H   -0.000001  -0.000006   0.000002
    12  O    0.293074   0.000543  -0.000118
    13  H    0.393469  -0.001476  -0.000005
    14  O   -0.001476   8.171644   0.299799
    15  H   -0.000005   0.299799   0.381781
 Mulliken charges:
               1
     1  Si   1.191507
     2  O   -0.599889
     3  O   -0.589308
     4  O   -0.752642
     5  Zr   1.445591
     6  H    0.336653
     7  H    0.333859
     8  O   -0.634241
     9  H    0.340769
    10  O   -0.691242
    11  H    0.332750
    12  O   -0.694169
    13  H    0.332224
    14  O   -0.686587
    15  H    0.334725
 Sum of Mulliken charges =  -0.00000
 Mulliken charges with hydrogens summed into heavy atoms:
               1
     1  Si   1.191507
     2  O   -0.263235
     3  O   -0.255449
     4  O   -0.752642
     5  Zr   1.445591
     8  O   -0.293472
    10  O   -0.358492
    12  O   -0.361945
    14  O   -0.351862
 Electronic spatial extent (au):  <R**2>=           2054.6933
 Charge=              0.0000 electrons
 Dipole moment (field-independent basis, Debye):
    X=              0.9801    Y=             -0.2192    Z=             -0.0366  Tot=              1.0049
 Quadrupole moment (field-independent basis, Debye-Ang):
   XX=            -65.9534   YY=            -69.2836   ZZ=            -70.2233
   XY=              0.3605   XZ=              1.8602   YZ=              1.1644
 Traceless Quadrupole moment (field-independent basis, Debye-Ang):
   XX=              2.5333   YY=             -0.7968   ZZ=             -1.7366
   XY=              0.3605   XZ=              1.8602   YZ=              1.1644
 Octapole moment (field-independent basis, Debye-Ang**2):
  XXX=             49.2441  YYY=             -4.3466  ZZZ=             14.4761  XYY=             11.4530
  XXY=             13.8866  XXZ=            -30.3178  XZZ=              9.3583  YZZ=             -4.7645
  YYZ=             -3.2084  XYZ=              0.8031
 Hexadecapole moment (field-independent basis, Debye-Ang**3):
 XXXX=          -1582.5742 YYYY=           -371.8297 ZZZZ=           -322.4540 XXXY=            -64.8702
 XXXZ=             16.3840 YYYX=             77.0988 YYYZ=              6.9278 ZZZX=             13.3907
 ZZZY=             -9.5250 XXYY=           -313.6220 XXZZ=           -284.8656 YYZZ=           -112.4004
 XXYZ=             18.5325 YYXZ=             -5.4873 ZZXY=            -47.5068
 N-N= 6.462716888567D+02 E-N=-3.329037758008D+03  KE= 8.296868367408D+02
   1 Symmetry operations used in ECPInt.
 ECPInt:  NShTT=    1770 NPrTT=   10201 LenC2=    1644 LenP2D=    6614.
 LDataN:  DoStor=T MaxTD1= 6 Len=  172
 Calling FoFJK, ICntrl=      2127 FMM=F ISym2X=0 I1Cent= 0 IOpClX= 0 NMat=1 NMatS=1 NMatT=0.
 Defaulting to unpruned grid for atomic number  40.
 Defaulting to unpruned grid for atomic number  40.
 Defaulting to unpruned grid for atomic number  40.
 Defaulting to unpruned grid for atomic number  40.
 Defaulting to unpruned grid for atomic number  40.
 Defaulting to unpruned grid for atomic number  40.
 Defaulting to unpruned grid for atomic number  40.
 Defaulting to unpruned grid for atomic number  40.
 Defaulting to unpruned grid for atomic number  40.
 Defaulting to unpruned grid for atomic number  40.
 Defaulting to unpruned grid for atomic number  40.
 Defaulting to unpruned grid for atomic number  40.
 Defaulting to unpruned grid for atomic number  40.
 Defaulting to unpruned grid for atomic number  40.
 Defaulting to unpruned grid for atomic number  40.
 Defaulting to unpruned grid for atomic number  40.
 ***** Axes restored to original set *****
 -------------------------------------------------------------------
 Center     Atomic                   Forces (Hartrees/Bohr)
 Number     Number              X              Y              Z
 -------------------------------------------------------------------
      1       14           0.016017351    0.003370173    0.014997155
      2        8          -0.001147216    0.000889239   -0.002197058
      3        8          -0.000282647   -0.001025727   -0.001781048
      4        8           0.007323115   -0.001513351   -0.008140465
      5       40          -0.011301471    0.000937786   -0.007270121
      6        1          -0.000009639    0.000108477   -0.000072744
      7        1          -0.000074739    0.000159202    0.000219698
      8        8          -0.002398884    0.001576164   -0.000775611
      9        1          -0.002223866   -0.002163627   -0.000796062
     10        8          -0.002872417    0.003144229    0.001984779
     11        1           0.000925401   -0.001172807    0.000545240
     12        8          -0.001751797   -0.005752201   -0.000418628
     13        1          -0.000380001    0.000742729    0.000756546
     14        8          -0.001948651    0.001288908    0.002267283
     15        1           0.000125461   -0.000589196    0.000681035
 -------------------------------------------------------------------
 Cartesian Forces:  Max     0.016017351 RMS     0.004473472

 GradGradGradGradGradGradGradGradGradGradGradGradGradGradGradGradGradGrad
 Berny optimization.
 FormGI is forming the generalized inverse of G from B-inverse, IUseBI=4.
 Internal  Forces:  Max     0.022814670 RMS     0.004376785
 Search for a local minimum.
 Step number   1 out of a maximum of   67
 All quantities printed in internal units (Hartrees-Bohrs-Radians)
 Mixed Optimization -- RFO/linear search
 Second derivative matrix not updated -- first step.
 ITU=  0
     Eigenvalues ---    0.00230   0.00230   0.00230   0.00230   0.03138
     Eigenvalues ---    0.03732   0.03782   0.03962   0.07595   0.10447
     Eigenvalues ---    0.11446   0.11649   0.12384   0.13641   0.15842
     Eigenvalues ---    0.16000   0.16000   0.16000   0.16000   0.16000
     Eigenvalues ---    0.16000   0.18952   0.19683   0.19789   0.19910
     Eigenvalues ---    0.19986   0.20440   0.21460   0.37017   0.43277
     Eigenvalues ---    0.43863   0.46083   0.54274   0.54624   0.54679
     Eigenvalues ---    0.54844   0.54945   0.553461000.000001000.00000
     Eigenvalues --- 1000.000001000.000001000.000001000.000001000.00000
     Eigenvalues --- 1000.000001000.000001000.000001000.000001000.00000
     Eigenvalues --- 1000.000001000.000001000.000001000.000001000.00000
     Eigenvalues --- 1000.000001000.00000
 RFO step:  Lambda=-4.03037368D-03 EMin= 2.30000000D-03
 Linear search not attempted -- first point.
 Iteration  1 RMS(Cart)=  0.05673397 RMS(Int)=  0.00084343
 Iteration  2 RMS(Cart)=  0.00155693 RMS(Int)=  0.00027068
 Iteration  3 RMS(Cart)=  0.00000052 RMS(Int)=  0.00027068
 Iteration  1 RMS(Cart)=  0.00000000 RMS(Int)=  0.00000000
 Variable       Old X    -DE/DX   Delta X   Delta X   Delta X     New X
                                 (Linear)    (Quad)   (Total)
    R1        3.10319   0.00177   0.00000   0.00401   0.00401   3.10720
    R2        3.11029   0.00086   0.00000   0.00196   0.00196   3.11226
    R3        3.07737  -0.00159   0.00000  -0.00342  -0.00342   3.07395
    R4        3.19520  -0.00371   0.00000  -0.00992  -0.00992   3.18529
    R5        1.81970   0.00004   0.00000   0.00007   0.00007   1.81977
    R6        1.82168  -0.00023   0.00000  -0.00042  -0.00042   1.82125
    R7        3.87519  -0.01701   0.00000  -0.10474  -0.10474   3.77046
    R8        3.72020  -0.00067   0.00000  -0.00332  -0.00332   3.71688
    R9        3.74644  -0.00493   0.00000  -0.02547  -0.02547   3.72098
   R10        3.69439  -0.00351   0.00000  -0.01686  -0.01686   3.67753
   R11        1.82483  -0.00196   0.00000  -0.00358  -0.00358   1.82125
   R12        1.81881   0.00070   0.00000   0.00127   0.00127   1.82008
   R13        1.82118  -0.00005   0.00000  -0.00009  -0.00009   1.82109
   R14        1.81526   0.00012   0.00000   0.00021   0.00021   1.81547
    A1        1.87881   0.00105   0.00000  -0.00684  -0.00724   1.87157
    A2        2.06640  -0.00199   0.00000  -0.01350  -0.01404   2.05235
    A3        1.84268  -0.00085   0.00000   0.00368   0.00373   1.84641
    A4        1.96857  -0.00378   0.00000  -0.02310  -0.02348   1.94509
    A5        1.98615  -0.00117   0.00000  -0.00111  -0.00095   1.98519
    A6        1.71611   0.00719   0.00000   0.04691   0.04701   1.76311
    A7        2.02313   0.00018   0.00000   0.00111   0.00111   2.02423
    A8        1.99882   0.00006   0.00000   0.00034   0.00034   1.99916
    A9        2.18470  -0.02281   0.00000   0.00000   0.00000   2.18470
   A10        1.97349  -0.00084   0.00000  -0.01499  -0.01594   1.95756
   A11        1.98529  -0.00150   0.00000  -0.01888  -0.01976   1.96552
   A12        1.83278   0.00197   0.00000   0.02544   0.02556   1.85835
   A13        1.99358  -0.00231   0.00000  -0.02419  -0.02499   1.96859
   A14        1.82399   0.00189   0.00000   0.02354   0.02373   1.84772
   A15        1.83238   0.00188   0.00000   0.02265   0.02289   1.85527
   A16        2.03567  -0.00246   0.00000  -0.01499  -0.01499   2.02067
   A17        2.30994   0.00253   0.00000   0.01544   0.01544   2.32538
   A18        2.22354   0.00203   0.00000   0.01238   0.01238   2.23592
   A19        2.47857  -0.00164   0.00000  -0.00999  -0.00999   2.46858
    D1       -0.55056   0.00155   0.00000   0.01503   0.01496  -0.53559
    D2        1.70706  -0.00452   0.00000  -0.03593  -0.03581   1.67125
    D3       -2.67792   0.00284   0.00000   0.01791   0.01785  -2.66007
    D4        2.64795  -0.00120   0.00000  -0.01211  -0.01198   2.63597
    D5        0.33621   0.00369   0.00000   0.03093   0.03075   0.36696
    D6       -1.59959  -0.00223   0.00000  -0.01267  -0.01262  -1.61221
    D7        1.81021   0.00276   0.00000   0.03542   0.03516   1.84537
    D8       -2.25748  -0.00130   0.00000  -0.01014  -0.00981  -2.26729
    D9       -0.15865  -0.00011   0.00000   0.00582   0.00574  -0.15291
   D10       -0.01284   0.00101   0.00000   0.02867   0.02844   0.01560
   D11       -2.06943   0.00091   0.00000   0.03527   0.03540  -2.03403
   D12        2.12810   0.00158   0.00000   0.03511   0.03521   2.16331
   D13        1.34240  -0.00316   0.00000  -0.07784  -0.07758   1.26482
   D14       -0.96890   0.00252   0.00000  -0.00909  -0.00939  -0.97828
   D15       -2.96270  -0.00018   0.00000  -0.04229  -0.04227  -3.00496
   D16       -1.54004   0.00264   0.00000   0.01217   0.01184  -1.52819
   D17        0.76721  -0.00267   0.00000  -0.05429  -0.05391   0.71330
   D18        2.75973  -0.00039   0.00000  -0.02453  -0.02458   2.73515
   D19       -2.04160  -0.00253   0.00000  -0.02186  -0.02146  -2.06306
   D20        1.94001   0.00251   0.00000   0.04322   0.04278   1.98279
   D21       -0.04756   0.00023   0.00000   0.01300   0.01303  -0.03454
   D22       -2.04480  -0.00024   0.00000  -0.00173  -0.00174  -2.04654
   D23        0.03635   0.00055   0.00000   0.00338   0.00341   0.03976
   D24        2.14003  -0.00032   0.00000  -0.00272  -0.00274   2.13729
         Item               Value     Threshold  Converged?
 Maximum Force            0.017015     0.000450     NO 
 RMS     Force            0.003194     0.000300     NO 
 Maximum Displacement     0.137027     0.001800     NO 
 RMS     Displacement     0.057082     0.001200     NO 
 Predicted change in Energy=-2.075312D-03
 GradGradGradGradGradGradGradGradGradGradGradGradGradGradGradGradGradGrad

                          Input orientation:                          
 ---------------------------------------------------------------------
 Center     Atomic      Atomic             Coordinates (Angstroms)
 Number     Number       Type             X           Y           Z
 ---------------------------------------------------------------------
      1         14           0       -1.859287   -0.031145   -0.107066
      2          8           0       -2.744635    1.334737   -0.339674
      3          8           0       -2.908211   -1.300776   -0.120989
      4          8           0       -0.598573   -0.290316   -1.101786
      5         40           0        1.321477   -0.073679   -0.604327
      6          1           0       -3.538837    1.236540   -0.875338
      7          1           0       -2.527656   -2.131105   -0.428521
      8          8           0       -1.068814    0.179997    1.366621
      9          1           0       -1.253225    1.006670    1.826455
     10          8           0        1.943949   -1.505306    0.592178
     11          1           0        1.938168   -1.614458    1.549100
     12          8           0        1.726918    1.725991    0.084140
     13          1           0        2.329708    2.381678   -0.283825
     14          8           0        2.343417   -0.272502   -2.248490
     15          1           0        3.007331   -0.833936   -2.657098
 ---------------------------------------------------------------------
                    Distance matrix (angstroms):
                    1          2          3          4          5
     1  Si   0.000000
     2  O    1.644257   0.000000
     3  O    1.646935   2.649624   0.000000
     4  O    1.626664   2.797713   2.705073   0.000000
     5  Zr   3.219679   4.311258   4.430535   1.995241   0.000000
     6  H    2.240124   0.962982   2.721158   3.320802   5.041108
     7  H    2.227079   3.473764   0.963766   2.750119   4.368036
     8  O    1.685581   2.655795   2.790888   2.556433   3.108452
     9  H    2.276593   2.650293   3.443229   3.268843   3.702019
    10  O    4.138442   5.560307   4.908554   3.287876   1.966889
    11  H    4.435137   5.847553   5.135659   3.900718   2.718742
    12  O    3.998119   4.508601   5.539658   3.298457   1.969056
    13  H    4.837421   5.181521   6.404903   4.047646   2.673580
    14  O    4.722994   5.667016   5.758751   3.157618   1.946064
    15  H    5.552577   6.569529   6.453172   3.964475   2.762963
                    6          7          8          9         10
     6  H    0.000000
     7  H    3.544456   0.000000
     8  O    3.499097   3.269855   0.000000
     9  H    3.546343   4.068750   0.963765   0.000000
    10  O    6.303354   4.629115   3.537902   4.249163   0.000000
    11  H    6.633527   4.911364   3.506467   4.139110   0.963144
    12  O    5.374787   5.765537   3.442524   3.526236   3.278183
    13  H    6.008415   6.631752   4.372793   4.379651   4.003103
    14  O    6.226048   5.522142   4.991704   5.583664   3.122303
    15  H    7.093227   6.106168   5.816643   6.453094   3.484152
                   11         12         13         14         15
    11  H    0.000000
    12  O    3.653674   0.000000
    13  H    4.413845   0.963680   0.000000
    14  O    4.048057   3.132923   3.302237   0.000000
    15  H    4.409583   3.963214   4.053612   0.960703   0.000000
 Stoichiometry    H6O7SiZr
 Framework group  C1[X(H6O7SiZr)]
 Deg. of freedom    39
 Full point group                 C1      NOp   1
 Largest Abelian subgroup         C1      NOp   1
 Largest concise Abelian subgroup C1      NOp   1
                         Standard orientation:                         
 ---------------------------------------------------------------------
 Center     Atomic      Atomic             Coordinates (Angstroms)
 Number     Number       Type             X           Y           Z
 ---------------------------------------------------------------------
      1         14           0       -2.012050   -0.044656   -0.097830
      2          8           0       -2.874691    1.273304   -0.569438
      3          8           0       -3.015064   -1.346841   -0.201137
      4          8           0       -0.594929   -0.324672   -0.845759
      5         40           0        1.207086   -0.012815   -0.047967
      6          1           0       -3.563689    1.114668   -1.223236
      7          1           0       -2.569501   -2.181972   -0.382450
      8          8           0       -1.488988    0.286430    1.469963
      9          1           0       -1.767184    1.134182    1.834335
     10          8           0        1.648023   -1.343535    1.331675
     11          1           0        1.481735   -1.391467    2.279144
     12          8           0        1.449614    1.839673    0.573845
     13          1           0        2.091688    2.490243    0.268594
     14          8           0        2.498274   -0.282088   -1.478873
     15          1           0        3.234282   -0.846034   -1.730283
 ---------------------------------------------------------------------
 Rotational constants (GHZ):           1.7257376           0.5534396           0.5390949
 Basis read from rwf:  (5D, 7F)
 Pseudo-potential data read from rwf file.
 There are   178 symmetry adapted cartesian basis functions of A   symmetry.
 There are   168 symmetry adapted basis functions of A   symmetry.
   168 basis functions,   339 primitive gaussians,   178 cartesian basis functions
    44 alpha electrons       44 beta electrons
       nuclear repulsion energy       650.0790720203 Hartrees.
 NAtoms=   15 NActive=   15 NUniq=   15 SFac= 1.00D+00 NAtFMM=   60 NAOKFM=F Big=F
 Integral buffers will be    131072 words long.
 Raffenetti 2 integral format.
 Two-electron integral symmetry is turned on.
 One-electron integrals computed using PRISM.
   1 Symmetry operations used in ECPInt.
 ECPInt:  NShTT=    1770 NPrTT=   10201 LenC2=    1649 LenP2D=    6635.
 LDataN:  DoStor=T MaxTD1= 5 Len=  102
 NBasis=   168 RedAO= T EigKep=  1.12D-02  NBF=   168
 NBsUse=   168 1.00D-06 EigRej= -1.00D+00 NBFU=   168
 Defaulting to unpruned grid for atomic number  40.
 Initial guess from the checkpoint file:  "/localscratch/sarashs.33453158.0/Gau-6899.chk"
 B after Tr=     0.000000   -0.000000   -0.000000
         Rot=    0.999796    0.019021    0.006674   -0.001096 Ang=   2.31 deg.
 ExpMin= 2.43D-02 ExpMax= 1.61D+04 ExpMxC= 2.43D+03 IAcc=3 IRadAn=         5 AccDes= 0.00D+00
 Harris functional with IExCor=  402 and IRadAn=       5 diagonalized for initial guess.
 HarFok:  IExCor=  402 AccDes= 0.00D+00 IRadAn=         5 IDoV= 1 UseB2=F ITyADJ=14
 ICtDFT=  3500011 ScaDFX=  1.000000  1.000000  1.000000  1.000000
 Defaulting to unpruned grid for atomic number  40.
 FoFCou: FMM=F IPFlag=           0 FMFlag=      100000 FMFlg1=           0
         NFxFlg=           0 DoJE=T BraDBF=F KetDBF=T FulRan=T
         wScrn=  0.000000 ICntrl=       500 IOpCl=  0 I1Cent=   200000004 NGrid=           0
         NMat0=    1 NMatS0=      1 NMatT0=    0 NMatD0=    1 NMtDS0=    0 NMtDT0=    0
 Petite list used in FoFCou.
 Requested convergence on RMS density matrix=1.00D-08 within 128 cycles.
 Requested convergence on MAX density matrix=1.00D-06.
 Requested convergence on             energy=1.00D-06.
 No special actions if energy rises.
 Defaulting to unpruned grid for atomic number  40.
 Defaulting to unpruned grid for atomic number  40.
 Defaulting to unpruned grid for atomic number  40.
 Defaulting to unpruned grid for atomic number  40.
 Defaulting to unpruned grid for atomic number  40.
 Defaulting to unpruned grid for atomic number  40.
 Defaulting to unpruned grid for atomic number  40.
 Defaulting to unpruned grid for atomic number  40.
 Defaulting to unpruned grid for atomic number  40.
 Defaulting to unpruned grid for atomic number  40.
 Defaulting to unpruned grid for atomic number  40.
 Defaulting to unpruned grid for atomic number  40.
 Defaulting to unpruned grid for atomic number  40.
 Defaulting to unpruned grid for atomic number  40.
 Defaulting to unpruned grid for atomic number  40.
 Defaulting to unpruned grid for atomic number  40.
 SCF Done:  E(RB3LYP) =  -866.686110126     A.U. after   11 cycles
            NFock= 11  Conv=0.69D-08     -V/T= 2.0444
   1 Symmetry operations used in ECPInt.
 ECPInt:  NShTT=    1770 NPrTT=   10201 LenC2=    1649 LenP2D=    6635.
 LDataN:  DoStor=T MaxTD1= 6 Len=  172
 Calling FoFJK, ICntrl=      2127 FMM=F ISym2X=0 I1Cent= 0 IOpClX= 0 NMat=1 NMatS=1 NMatT=0.
 Defaulting to unpruned grid for atomic number  40.
 Defaulting to unpruned grid for atomic number  40.
 Defaulting to unpruned grid for atomic number  40.
 Defaulting to unpruned grid for atomic number  40.
 Defaulting to unpruned grid for atomic number  40.
 Defaulting to unpruned grid for atomic number  40.
 Defaulting to unpruned grid for atomic number  40.
 Defaulting to unpruned grid for atomic number  40.
 Defaulting to unpruned grid for atomic number  40.
 Defaulting to unpruned grid for atomic number  40.
 Defaulting to unpruned grid for atomic number  40.
 Defaulting to unpruned grid for atomic number  40.
 Defaulting to unpruned grid for atomic number  40.
 Defaulting to unpruned grid for atomic number  40.
 Defaulting to unpruned grid for atomic number  40.
 Defaulting to unpruned grid for atomic number  40.
 ***** Axes restored to original set *****
 -------------------------------------------------------------------
 Center     Atomic                   Forces (Hartrees/Bohr)
 Number     Number              X              Y              Z
 -------------------------------------------------------------------
      1       14           0.004258161    0.003102128    0.014569591
      2        8           0.000202582    0.000860859   -0.001164178
      3        8          -0.000098658   -0.001114880   -0.000853540
      4        8          -0.006767868   -0.002290111   -0.009742465
      5       40           0.005533625   -0.001423343    0.002979409
      6        1           0.000267661   -0.000231242   -0.000070179
      7        1          -0.000130959   -0.000008847    0.000134146
      8        8          -0.002283913   -0.000715320   -0.005835312
      9        1          -0.001350338   -0.000323832   -0.000027229
     10        8          -0.001516738    0.000821295    0.002469942
     11        1           0.000477266   -0.000622983   -0.000552664
     12        8           0.000064759    0.001320675    0.000507507
     13        1          -0.000469910    0.000859637    0.001044139
     14        8           0.001694155   -0.000016688   -0.003815949
     15        1           0.000120175   -0.000217348    0.000356781
 -------------------------------------------------------------------
 Cartesian Forces:  Max     0.014569591 RMS     0.003350561

 GradGradGradGradGradGradGradGradGradGradGradGradGradGradGradGradGradGrad
 Berny optimization.
 Using GEDIIS/GDIIS optimizer.
 FormGI is forming the generalized inverse of G from B-inverse, IUseBI=4.
 Internal  Forces:  Max     0.011335313 RMS     0.002333905
 Search for a local minimum.
 Step number   2 out of a maximum of   67
 All quantities printed in internal units (Hartrees-Bohrs-Radians)
 Mixed Optimization -- RFO/linear search
 Update second derivatives using D2CorX and points    1    2
 DE= -2.15D-03 DEPred=-2.08D-03 R= 1.04D+00
 TightC=F SS=  1.41D+00  RLast= 2.01D-01 DXNew= 5.0454D-01 6.0432D-01
 Trust test= 1.04D+00 RLast= 2.01D-01 DXMaxT set to 5.05D-01
 ITU=  1  0
 Use linear search instead of GDIIS.
     Eigenvalues ---    0.00230   0.00230   0.00230   0.00232   0.03000
     Eigenvalues ---    0.03731   0.03781   0.03943   0.06049   0.10307
     Eigenvalues ---    0.11055   0.11196   0.12339   0.13225   0.15471
     Eigenvalues ---    0.15999   0.16000   0.16000   0.16000   0.16000
     Eigenvalues ---    0.18301   0.19501   0.19719   0.19935   0.19978
     Eigenvalues ---    0.20040   0.20830   0.25595   0.38035   0.43268
     Eigenvalues ---    0.43842   0.47282   0.54298   0.54623   0.54680
     Eigenvalues ---    0.54846   0.54988   0.553461000.000001000.00000
     Eigenvalues --- 1000.000001000.000001000.000001000.000001000.00000
     Eigenvalues --- 1000.000001000.000001000.000001000.000001000.00000
     Eigenvalues --- 1000.000001000.000001000.000001000.000001000.00000
     Eigenvalues --- 1000.000001000.00000
 RFO step:  Lambda=-1.11555214D-03 EMin= 2.29870690D-03
 Quartic linear search produced a step of  0.04175.
 Iteration  1 RMS(Cart)=  0.02801742 RMS(Int)=  0.00041718
 Iteration  2 RMS(Cart)=  0.00063898 RMS(Int)=  0.00020254
 Iteration  3 RMS(Cart)=  0.00000017 RMS(Int)=  0.00020254
 Iteration  1 RMS(Cart)=  0.00000000 RMS(Int)=  0.00000000
 Variable       Old X    -DE/DX   Delta X   Delta X   Delta X     New X
                                 (Linear)    (Quad)   (Total)
    R1        3.10720   0.00044   0.00017   0.00200   0.00217   3.10936
    R2        3.11226   0.00102   0.00008   0.00290   0.00298   3.11524
    R3        3.07395   0.00371  -0.00014   0.00749   0.00734   3.08129
    R4        3.18529  -0.00696  -0.00041  -0.02174  -0.02216   3.16313
    R5        1.81977  -0.00016   0.00000  -0.00028  -0.00028   1.81949
    R6        1.82125  -0.00009  -0.00002  -0.00027  -0.00028   1.82097
    R7        3.77046   0.00650  -0.00437   0.01742   0.01305   3.78350
    R8        3.71688   0.00069  -0.00014   0.00283   0.00269   3.71957
    R9        3.72098   0.00245  -0.00106   0.00727   0.00620   3.72718
   R10        3.67753   0.00390  -0.00070   0.01562   0.01492   3.69244
   R11        1.82125  -0.00003  -0.00015  -0.00092  -0.00107   1.82019
   R12        1.82008  -0.00048   0.00005  -0.00060  -0.00055   1.81953
   R13        1.82109  -0.00011  -0.00000  -0.00022  -0.00023   1.82086
   R14        1.81547   0.00006   0.00001   0.00016   0.00017   1.81563
    A1        1.87157   0.00106  -0.00030   0.00069   0.00017   1.87174
    A2        2.05235  -0.00165  -0.00059  -0.01449  -0.01529   2.03706
    A3        1.84641   0.00001   0.00016   0.00438   0.00461   1.85102
    A4        1.94509  -0.00135  -0.00098  -0.01487  -0.01604   1.92906
    A5        1.98519  -0.00026  -0.00004   0.00134   0.00137   1.98656
    A6        1.76311   0.00222   0.00196   0.02507   0.02711   1.79023
    A7        2.02423  -0.00052   0.00005  -0.00308  -0.00304   2.02120
    A8        1.99916   0.00025   0.00001   0.00169   0.00170   2.00086
    A9        2.18470  -0.01134  -0.00000   0.00000   0.00000   2.18470
   A10        1.95756  -0.00070  -0.00067  -0.01452  -0.01592   1.94164
   A11        1.96552  -0.00162  -0.00083  -0.02137  -0.02283   1.94269
   A12        1.85835   0.00104   0.00107   0.01875   0.01998   1.87832
   A13        1.96859  -0.00076  -0.00104  -0.01634  -0.01809   1.95050
   A14        1.84772   0.00117   0.00099   0.02106   0.02216   1.86988
   A15        1.85527   0.00132   0.00096   0.02019   0.02132   1.87659
   A16        2.02067  -0.00138  -0.00063  -0.01241  -0.01303   2.00764
   A17        2.32538   0.00149   0.00064   0.01323   0.01387   2.33925
   A18        2.23592   0.00259   0.00052   0.01956   0.02008   2.25600
   A19        2.46858  -0.00076  -0.00042  -0.00724  -0.00766   2.46092
    D1       -0.53559   0.00073   0.00062   0.00931   0.00991  -0.52568
    D2        1.67125  -0.00145  -0.00149  -0.02158  -0.02301   1.64825
    D3       -2.66007   0.00047   0.00075   0.00501   0.00571  -2.65435
    D4        2.63597  -0.00091  -0.00050  -0.01009  -0.01056   2.62540
    D5        0.36696   0.00141   0.00128   0.01915   0.02039   0.38735
    D6       -1.61221  -0.00035  -0.00053  -0.00349  -0.00399  -1.61621
    D7        1.84537   0.00083   0.00147   0.02123   0.02249   1.86786
    D8       -2.26729  -0.00026  -0.00041  -0.00328  -0.00349  -2.27078
    D9       -0.15291   0.00009   0.00024   0.00584   0.00608  -0.14683
   D10        0.01560   0.00129   0.00119   0.02982   0.03091   0.04651
   D11       -2.03403   0.00013   0.00148   0.02543   0.02697  -2.00706
   D12        2.16331   0.00048   0.00147   0.02706   0.02857   2.19188
   D13        1.26482  -0.00160  -0.00324  -0.04069  -0.04364   1.22118
   D14       -0.97828   0.00142  -0.00039   0.01247   0.01175  -0.96653
   D15       -3.00496   0.00006  -0.00176  -0.01193  -0.01366  -3.01862
   D16       -1.52819   0.00163   0.00049   0.01006   0.01031  -1.51788
   D17        0.71330  -0.00185  -0.00225  -0.04584  -0.04783   0.66547
   D18        2.73515   0.00005  -0.00103  -0.01732  -0.01836   2.71678
   D19       -2.06306  -0.00136  -0.00090  -0.01004  -0.01058  -2.07364
   D20        1.98279   0.00166   0.00179   0.04255   0.04399   2.02678
   D21       -0.03454  -0.00016   0.00054   0.01352   0.01404  -0.02049
   D22       -2.04654  -0.00036  -0.00007  -0.01360  -0.01369  -2.06023
   D23        0.03976  -0.00006   0.00014  -0.01053  -0.01040   0.02936
   D24        2.13729   0.00031  -0.00011  -0.00873  -0.00882   2.12846
         Item               Value     Threshold  Converged?
 Maximum Force            0.006959     0.000450     NO 
 RMS     Force            0.001803     0.000300     NO 
 Maximum Displacement     0.073783     0.001800     NO 
 RMS     Displacement     0.028229     0.001200     NO 
 Predicted change in Energy=-5.667998D-04
 GradGradGradGradGradGradGradGradGradGradGradGradGradGradGradGradGradGrad

                          Input orientation:                          
 ---------------------------------------------------------------------
 Center     Atomic      Atomic             Coordinates (Angstroms)
 Number     Number       Type             X           Y           Z
 ---------------------------------------------------------------------
      1         14           0       -1.847056   -0.024555   -0.086416
      2          8           0       -2.733337    1.340251   -0.329661
      3          8           0       -2.892907   -1.298445   -0.117897
      4          8           0       -0.601933   -0.281677   -1.107324
      5         40           0        1.334226   -0.081782   -0.638379
      6          1           0       -3.523270    1.236257   -0.870255
      7          1           0       -2.509306   -2.125583   -0.429746
      8          8           0       -1.075546    0.180550    1.384807
      9          1           0       -1.292269    0.996597    1.848331
     10          8           0        1.919183   -1.498925    0.596040
     11          1           0        1.912779   -1.596698    1.553896
     12          8           0        1.716206    1.715575    0.078361
     13          1           0        2.304659    2.396740   -0.265419
     14          8           0        2.366069   -0.290136   -2.284537
     15          1           0        3.034231   -0.855781   -2.680422
 ---------------------------------------------------------------------
                    Distance matrix (angstroms):
                    1          2          3          4          5
     1  Si   0.000000
     2  O    1.645404   0.000000
     3  O    1.648512   2.651984   0.000000
     4  O    1.630551   2.788958   2.694688   0.000000
     5  Zr   3.229318   4.320017   4.429427   2.002144   0.000000
     6  H    2.239139   0.962835   2.718109   3.300687   5.038478
     7  H    2.229522   3.474508   0.963616   2.738096   4.358140
     8  O    1.673856   2.651900   2.783585   2.578504   3.157388
     9  H    2.256942   2.634088   3.419841   3.293394   3.774269
    10  O    4.101715   5.528451   4.868891   3.277067   1.968313
    11  H    4.393019   5.810322   5.096907   3.890392   2.726859
    12  O    3.968884   4.483946   5.510603   3.281560   1.972338
    13  H    4.809517   5.147980   6.378938   4.041164   2.687734
    14  O    4.759484   5.699442   5.776491   3.192952   1.953957
    15  H    5.589880   6.604049   6.472514   4.003239   2.767495
                    6          7          8          9         10
     6  H    0.000000
     7  H    3.538946   0.000000
     8  O    3.491586   3.265964   0.000000
     9  H    3.524984   4.052014   0.963201   0.000000
    10  O    6.265104   4.588731   3.522952   4.255501   0.000000
    11  H    6.591871   4.875386   3.480989   4.133304   0.962854
    12  O    5.346188   5.733029   3.443396   3.563796   3.262239
    13  H    5.973048   6.607017   4.365837   4.400708   4.008355
    14  O    6.246150   5.529774   5.052756   5.667426   3.155725
    15  H    7.117172   6.116268   5.872847   6.531425   3.520251
                   11         12         13         14         15
    11  H    0.000000
    12  O    3.631390   0.000000
    13  H    4.405794   0.963560   0.000000
    14  O    4.079968   3.166778   3.361534   0.000000
    15  H    4.442528   3.994990   4.116237   0.960791   0.000000
 Stoichiometry    H6O7SiZr
 Framework group  C1[X(H6O7SiZr)]
 Deg. of freedom    39
 Full point group                 C1      NOp   1
 Largest Abelian subgroup         C1      NOp   1
 Largest concise Abelian subgroup C1      NOp   1
                         Standard orientation:                         
 ---------------------------------------------------------------------
 Center     Atomic      Atomic             Coordinates (Angstroms)
 Number     Number       Type             X           Y           Z
 ---------------------------------------------------------------------
      1         14           0       -2.009859   -0.046932   -0.093810
      2          8           0       -2.871488    1.248259   -0.629936
      3          8           0       -2.998342   -1.363055   -0.184998
      4          8           0       -0.591632   -0.344161   -0.841460
      5         40           0        1.219044   -0.015466   -0.052794
      6          1           0       -3.545271    1.058815   -1.291131
      7          1           0       -2.542359   -2.198211   -0.337147
      8          8           0       -1.528328    0.330249    1.464283
      9          1           0       -1.848013    1.176090    1.796113
     10          8           0        1.603317   -1.282306    1.403814
     11          1           0        1.423054   -1.289262    2.349618
     12          8           0        1.415290    1.856723    0.535860
     13          1           0        2.039016    2.527665    0.237112
     14          8           0        2.541675   -0.332734   -1.455626
     15          1           0        3.285900   -0.903198   -1.664958
 ---------------------------------------------------------------------
 Rotational constants (GHZ):           1.7168293           0.5510149           0.5384127
 Basis read from rwf:  (5D, 7F)
 Pseudo-potential data read from rwf file.
 There are   178 symmetry adapted cartesian basis functions of A   symmetry.
 There are   168 symmetry adapted basis functions of A   symmetry.
   168 basis functions,   339 primitive gaussians,   178 cartesian basis functions
    44 alpha electrons       44 beta electrons
       nuclear repulsion energy       649.5584952414 Hartrees.
 NAtoms=   15 NActive=   15 NUniq=   15 SFac= 1.00D+00 NAtFMM=   60 NAOKFM=F Big=F
 Integral buffers will be    131072 words long.
 Raffenetti 2 integral format.
 Two-electron integral symmetry is turned on.
 One-electron integrals computed using PRISM.
   1 Symmetry operations used in ECPInt.
 ECPInt:  NShTT=    1770 NPrTT=   10201 LenC2=    1650 LenP2D=    6636.
 LDataN:  DoStor=T MaxTD1= 5 Len=  102
 NBasis=   168 RedAO= T EigKep=  1.12D-02  NBF=   168
 NBsUse=   168 1.00D-06 EigRej= -1.00D+00 NBFU=   168
 Defaulting to unpruned grid for atomic number  40.
 Initial guess from the checkpoint file:  "/localscratch/sarashs.33453158.0/Gau-6899.chk"
 B after Tr=    -0.000000    0.000000    0.000000
         Rot=    0.999856    0.016321    0.004445   -0.001305 Ang=   1.94 deg.
 ExpMin= 2.43D-02 ExpMax= 1.61D+04 ExpMxC= 2.43D+03 IAcc=3 IRadAn=         5 AccDes= 0.00D+00
 Harris functional with IExCor=  402 and IRadAn=       5 diagonalized for initial guess.
 HarFok:  IExCor=  402 AccDes= 0.00D+00 IRadAn=         5 IDoV= 1 UseB2=F ITyADJ=14
 ICtDFT=  3500011 ScaDFX=  1.000000  1.000000  1.000000  1.000000
 Defaulting to unpruned grid for atomic number  40.
 FoFCou: FMM=F IPFlag=           0 FMFlag=      100000 FMFlg1=           0
         NFxFlg=           0 DoJE=T BraDBF=F KetDBF=T FulRan=T
         wScrn=  0.000000 ICntrl=       500 IOpCl=  0 I1Cent=   200000004 NGrid=           0
         NMat0=    1 NMatS0=      1 NMatT0=    0 NMatD0=    1 NMtDS0=    0 NMtDT0=    0
 Petite list used in FoFCou.
 Requested convergence on RMS density matrix=1.00D-08 within 128 cycles.
 Requested convergence on MAX density matrix=1.00D-06.
 Requested convergence on             energy=1.00D-06.
 No special actions if energy rises.
 Defaulting to unpruned grid for atomic number  40.
 Defaulting to unpruned grid for atomic number  40.
 Defaulting to unpruned grid for atomic number  40.
 Defaulting to unpruned grid for atomic number  40.
 Defaulting to unpruned grid for atomic number  40.
 Defaulting to unpruned grid for atomic number  40.
 Defaulting to unpruned grid for atomic number  40.
 Defaulting to unpruned grid for atomic number  40.
 Defaulting to unpruned grid for atomic number  40.
 Defaulting to unpruned grid for atomic number  40.
 Defaulting to unpruned grid for atomic number  40.
 Defaulting to unpruned grid for atomic number  40.
 Defaulting to unpruned grid for atomic number  40.
 Defaulting to unpruned grid for atomic number  40.
 Defaulting to unpruned grid for atomic number  40.
 Defaulting to unpruned grid for atomic number  40.
 SCF Done:  E(RB3LYP) =  -866.686893039     A.U. after   10 cycles
            NFock= 10  Conv=0.75D-08     -V/T= 2.0445
   1 Symmetry operations used in ECPInt.
 ECPInt:  NShTT=    1770 NPrTT=   10201 LenC2=    1650 LenP2D=    6636.
 LDataN:  DoStor=T MaxTD1= 6 Len=  172
 Calling FoFJK, ICntrl=      2127 FMM=F ISym2X=0 I1Cent= 0 IOpClX= 0 NMat=1 NMatS=1 NMatT=0.
 Defaulting to unpruned grid for atomic number  40.
 Defaulting to unpruned grid for atomic number  40.
 Defaulting to unpruned grid for atomic number  40.
 Defaulting to unpruned grid for atomic number  40.
 Defaulting to unpruned grid for atomic number  40.
 Defaulting to unpruned grid for atomic number  40.
 Defaulting to unpruned grid for atomic number  40.
 Defaulting to unpruned grid for atomic number  40.
 Defaulting to unpruned grid for atomic number  40.
 Defaulting to unpruned grid for atomic number  40.
 Defaulting to unpruned grid for atomic number  40.
 Defaulting to unpruned grid for atomic number  40.
 Defaulting to unpruned grid for atomic number  40.
 Defaulting to unpruned grid for atomic number  40.
 Defaulting to unpruned grid for atomic number  40.
 Defaulting to unpruned grid for atomic number  40.
 ***** Axes restored to original set *****
 -------------------------------------------------------------------
 Center     Atomic                   Forces (Hartrees/Bohr)
 Number     Number              X              Y              Z
 -------------------------------------------------------------------
      1       14           0.001485206    0.000978541    0.007017045
      2        8           0.000171147    0.000818829   -0.000142556
      3        8          -0.000478875   -0.000699072   -0.000033350
      4        8          -0.002120679   -0.001340641   -0.005875022
      5       40           0.003887161   -0.000729708    0.003143733
      6        1           0.000206780   -0.000266146   -0.000185215
      7        1           0.000025193    0.000183805    0.000011918
      8        8          -0.000992066   -0.000439557   -0.003373223
      9        1          -0.000633082    0.000205535    0.000657468
     10        8          -0.001275975    0.001778153   -0.000126838
     11        1           0.000162105   -0.000256572   -0.000402124
     12        8           0.000109847   -0.000954955   -0.001093341
     13        1          -0.000416743    0.000646849    0.000890980
     14        8          -0.000273037    0.000304538   -0.000799085
     15        1           0.000143018   -0.000229600    0.000309611
 -------------------------------------------------------------------
 Cartesian Forces:  Max     0.007017045 RMS     0.001784697

 GradGradGradGradGradGradGradGradGradGradGradGradGradGradGradGradGradGrad
 Berny optimization.
 Using GEDIIS/GDIIS optimizer.
 FormGI is forming the generalized inverse of G from B-inverse, IUseBI=4.
 Internal  Forces:  Max     0.007060808 RMS     0.001268754
 Search for a local minimum.
 Step number   3 out of a maximum of   67
 All quantities printed in internal units (Hartrees-Bohrs-Radians)
 Mixed Optimization -- En-DIIS/RFO-DIIS
 Update second derivatives using D2CorX and points    1    2    3
 DE= -7.83D-04 DEPred=-5.67D-04 R= 1.38D+00
 TightC=F SS=  1.41D+00  RLast= 1.32D-01 DXNew= 8.4853D-01 3.9535D-01
 Trust test= 1.38D+00 RLast= 1.32D-01 DXMaxT set to 5.05D-01
 ITU=  1  1  0
 Use linear search instead of GDIIS.
     Eigenvalues ---    0.00226   0.00230   0.00231   0.00232   0.02539
     Eigenvalues ---    0.03733   0.03769   0.03981   0.04917   0.10599
     Eigenvalues ---    0.10796   0.10861   0.12244   0.13043   0.15148
     Eigenvalues ---    0.16000   0.16000   0.16000   0.16000   0.16211
     Eigenvalues ---    0.18712   0.19520   0.19910   0.20008   0.20064
     Eigenvalues ---    0.20222   0.21411   0.25431   0.36015   0.43220
     Eigenvalues ---    0.43835   0.46437   0.54423   0.54625   0.54680
     Eigenvalues ---    0.54846   0.54976   0.553461000.000001000.00000
     Eigenvalues --- 1000.000001000.000001000.000001000.000001000.00000
     Eigenvalues --- 1000.000001000.000001000.000001000.000001000.00000
     Eigenvalues --- 1000.000001000.000001000.000001000.000001000.00000
     Eigenvalues --- 1000.000001000.00000
 RFO step:  Lambda=-2.02876890D-04 EMin= 2.25752472D-03
 Quartic linear search produced a step of  0.61650.
 Iteration  1 RMS(Cart)=  0.06855949 RMS(Int)=  0.00110578
 Iteration  2 RMS(Cart)=  0.00177341 RMS(Int)=  0.00024026
 Iteration  3 RMS(Cart)=  0.00000112 RMS(Int)=  0.00024026
 Iteration  4 RMS(Cart)=  0.00000000 RMS(Int)=  0.00024026
 Iteration  1 RMS(Cart)=  0.00000000 RMS(Int)=  0.00000000
 Variable       Old X    -DE/DX   Delta X   Delta X   Delta X     New X
                                 (Linear)    (Quad)   (Total)
    R1        3.10936   0.00030   0.00134   0.00096   0.00229   3.11166
    R2        3.11524   0.00069   0.00184   0.00168   0.00352   3.11876
    R3        3.08129   0.00276   0.00453   0.00600   0.01053   3.09182
    R4        3.16313  -0.00316  -0.01366  -0.00638  -0.02005   3.14308
    R5        1.81949  -0.00004  -0.00017   0.00002  -0.00015   1.81934
    R6        1.82097  -0.00015  -0.00017  -0.00041  -0.00059   1.82039
    R7        3.78350   0.00276   0.00804   0.00339   0.01143   3.79493
    R8        3.71957  -0.00176   0.00166  -0.01621  -0.01455   3.70502
    R9        3.72718  -0.00041   0.00382  -0.01086  -0.00704   3.72014
   R10        3.69244   0.00034   0.00920  -0.00675   0.00244   3.69489
   R11        1.82019   0.00063  -0.00066   0.00167   0.00101   1.82120
   R12        1.81953  -0.00038  -0.00034  -0.00064  -0.00098   1.81855
   R13        1.82086  -0.00012  -0.00014  -0.00026  -0.00040   1.82046
   R14        1.81563   0.00011   0.00010   0.00028   0.00038   1.81602
    A1        1.87174   0.00048   0.00011   0.00121   0.00110   1.87284
    A2        2.03706  -0.00080  -0.00942  -0.00423  -0.01385   2.02322
    A3        1.85102  -0.00005   0.00284  -0.00078   0.00215   1.85317
    A4        1.92906  -0.00019  -0.00989   0.00044  -0.00964   1.91942
    A5        1.98656  -0.00020   0.00084  -0.00074   0.00016   1.98672
    A6        1.79023   0.00073   0.01671   0.00395   0.02076   1.81098
    A7        2.02120  -0.00058  -0.00187  -0.00440  -0.00627   2.01492
    A8        2.00086  -0.00019   0.00105  -0.00258  -0.00153   1.99933
    A9        2.18470  -0.00706   0.00000   0.00000  -0.00000   2.18470
   A10        1.94164  -0.00035  -0.00981  -0.00391  -0.01457   1.92707
   A11        1.94269  -0.00067  -0.01408  -0.00524  -0.02004   1.92265
   A12        1.87832   0.00018   0.01232   0.00079   0.01332   1.89164
   A13        1.95050  -0.00021  -0.01115  -0.00156  -0.01361   1.93689
   A14        1.86988   0.00058   0.01366   0.00588   0.01965   1.88953
   A15        1.87659   0.00057   0.01314   0.00496   0.01829   1.89488
   A16        2.00764   0.00009  -0.00804   0.00365  -0.00438   2.00326
   A17        2.33925   0.00061   0.00855   0.00316   0.01171   2.35096
   A18        2.25600   0.00213   0.01238   0.01531   0.02769   2.28369
   A19        2.46092  -0.00070  -0.00472  -0.00571  -0.01043   2.45050
    D1       -0.52568   0.00003   0.00611  -0.00365   0.00242  -0.52326
    D2        1.64825  -0.00040  -0.01418  -0.00513  -0.01923   1.62901
    D3       -2.65435   0.00004   0.00352  -0.00300   0.00047  -2.65388
    D4        2.62540  -0.00032  -0.00651  -0.00231  -0.00881   2.61659
    D5        0.38735   0.00047   0.01257   0.00189   0.01442   0.40177
    D6       -1.61621  -0.00019  -0.00246  -0.00291  -0.00535  -1.62156
    D7        1.86786  -0.00003   0.01387  -0.00476   0.00887   1.87674
    D8       -2.27078  -0.00015  -0.00215  -0.00600  -0.00795  -2.27873
    D9       -0.14683  -0.00006   0.00375  -0.00437  -0.00059  -0.14743
   D10        0.04651   0.00072   0.01905   0.01343   0.03238   0.07889
   D11       -2.00706   0.00028   0.01663   0.01286   0.02954  -1.97752
   D12        2.19188   0.00014   0.01762   0.01020   0.02785   2.21974
   D13        1.22118  -0.00067  -0.02690  -0.07155  -0.09807   1.12311
   D14       -0.96653   0.00037   0.00725  -0.06261  -0.05578  -1.02231
   D15       -3.01862  -0.00005  -0.00842  -0.06615  -0.07454  -3.09316
   D16       -1.51788   0.00055   0.00636   0.01363   0.01967  -1.49821
   D17        0.66547  -0.00076  -0.02949   0.00258  -0.02659   0.63888
   D18        2.71678   0.00018  -0.01132   0.01131  -0.00001   2.71677
   D19       -2.07364  -0.00040  -0.00652   0.00531  -0.00077  -2.07440
   D20        2.02678   0.00073   0.02712   0.01563   0.04235   2.06913
   D21       -0.02049  -0.00022   0.00866   0.00633   0.01495  -0.00554
   D22       -2.06023  -0.00016  -0.00844  -0.01181  -0.02027  -2.08050
   D23        0.02936  -0.00016  -0.00641  -0.01281  -0.01928   0.01008
   D24        2.12846   0.00023  -0.00544  -0.00876  -0.01412   2.11434
         Item               Value     Threshold  Converged?
 Maximum Force            0.003164     0.000450     NO 
 RMS     Force            0.000865     0.000300     NO 
 Maximum Displacement     0.187916     0.001800     NO 
 RMS     Displacement     0.068758     0.001200     NO 
 Predicted change in Energy=-2.449358D-04
 GradGradGradGradGradGradGradGradGradGradGradGradGradGradGradGradGradGrad

                          Input orientation:                          
 ---------------------------------------------------------------------
 Center     Atomic      Atomic             Coordinates (Angstroms)
 Number     Number       Type             X           Y           Z
 ---------------------------------------------------------------------
      1         14           0       -1.835388   -0.029208   -0.068678
      2          8           0       -2.716934    1.347560   -0.265488
      3          8           0       -2.883551   -1.300669   -0.160758
      4          8           0       -0.601318   -0.244873   -1.121035
      5         40           0        1.347679   -0.069109   -0.670086
      6          1           0       -3.501811    1.261013   -0.816282
      7          1           0       -2.498770   -2.112240   -0.508976
      8          8           0       -1.078185    0.112091    1.405457
      9          1           0       -1.319282    0.897156    1.909772
     10          8           0        1.875508   -1.440129    0.628261
     11          1           0        1.854843   -1.507182    1.588035
     12          8           0        1.724563    1.736119    0.018790
     13          1           0        2.303244    2.429952   -0.315516
     14          8           0        2.385731   -0.341098   -2.304550
     15          1           0        3.055402   -0.926991   -2.667566
 ---------------------------------------------------------------------
                    Distance matrix (angstroms):
                    1          2          3          4          5
     1  Si   0.000000
     2  O    1.646617   0.000000
     3  O    1.650375   2.655532   0.000000
     4  O    1.636122   2.782738   2.691732   0.000000
     5  Zr   3.239630   4.323394   4.436154   2.008193   0.000000
     6  H    2.236190   0.962754   2.715542   3.282289   5.030721
     7  H    2.230013   3.475212   0.963307   2.731666   4.358384
     8  O    1.663248   2.646496   2.776376   2.595763   3.197738
     9  H    2.244723   2.624509   3.400657   3.317452   3.834321
    10  O    4.030778   5.446147   4.826038   3.259347   1.960613
    11  H    4.306613   5.699671   5.055028   3.868490   2.724771
    12  O    3.974579   4.467514   5.521687   3.260867   1.968614
    13  H    4.820444   5.135782   6.390957   4.029892   2.698913
    14  O    4.786883   5.748611   5.769052   3.214410   1.955250
    15  H    5.610710   6.653076   6.457158   4.028480   2.764454
                    6          7          8          9         10
     6  H    0.000000
     7  H    3.532614   0.000000
     8  O    3.482830   3.260485   0.000000
     9  H    3.511010   4.037078   0.963737   0.000000
    10  O    6.188572   4.569393   3.426036   4.160752   0.000000
    11  H    6.491331   4.870062   3.355300   3.994926   0.962335
    12  O    5.313949   5.738026   3.523593   3.680307   3.237713
    13  H    5.942713   6.612736   4.446155   4.519299   4.006395
    14  O    6.280513   5.497216   5.095905   5.746382   3.173260
    15  H    7.156231   6.075620   5.895401   6.589188   3.538070
                   11         12         13         14         15
    11  H    0.000000
    12  O    3.605343   0.000000
    13  H    4.396089   0.963347   0.000000
    14  O    4.098026   3.185888   3.412005   0.000000
    15  H    4.459608   4.009962   4.167367   0.960994   0.000000
 Stoichiometry    H6O7SiZr
 Framework group  C1[X(H6O7SiZr)]
 Deg. of freedom    39
 Full point group                 C1      NOp   1
 Largest Abelian subgroup         C1      NOp   1
 Largest concise Abelian subgroup C1      NOp   1
                         Standard orientation:                         
 ---------------------------------------------------------------------
 Center     Atomic      Atomic             Coordinates (Angstroms)
 Number     Number       Type             X           Y           Z
 ---------------------------------------------------------------------
      1         14           0       -2.008504   -0.049319   -0.091669
      2          8           0       -2.861116    1.232196   -0.676579
      3          8           0       -2.991758   -1.372212   -0.174742
      4          8           0       -0.586217   -0.362367   -0.837321
      5         40           0        1.230759   -0.017439   -0.054721
[...]
 ! R11   R(8,9)                  0.9634         -DE/DX =    0.0                 !
 ! R12   R(10,11)                0.9623         -DE/DX =    0.0                 !
 ! R13   R(12,13)                0.9613         -DE/DX =    0.0                 !
 ! R14   R(14,15)                0.9615         -DE/DX =    0.0                 !
 ! A1    A(2,1,3)              106.8433         -DE/DX =    0.0                 !
 ! A2    A(2,1,4)              116.6004         -DE/DX =    0.0                 !
 ! A3    A(2,1,8)              105.8853         -DE/DX =    0.0                 !
 ! A4    A(3,1,4)              110.1252         -DE/DX =    0.0                 !
 ! A5    A(3,1,8)              114.5075         -DE/DX =    0.0                 !
 ! A6    A(4,1,8)              103.0682         -DE/DX =    0.0                 !
 ! A7    A(1,2,6)              115.1675         -DE/DX =    0.0                 !
 ! A8    A(1,3,7)              114.1429         -DE/DX =    0.0                 !
 ! A9    A(1,4,5)              125.174          -DE/DX =   -0.002               !
 ! A10   A(4,5,10)             111.2527         -DE/DX =    0.0                 !
 ! A11   A(4,5,12)             110.2837         -DE/DX =    0.0                 !
 ! A12   A(4,5,14)             107.2357         -DE/DX =    0.0                 !
 ! A13   A(10,5,12)            110.9588         -DE/DX =    0.0                 !
 ! A14   A(10,5,14)            107.6188         -DE/DX =    0.0                 !
 ! A15   A(12,5,14)            109.3665         -DE/DX =    0.0                 !
 ! A16   A(1,8,9)              115.5901         -DE/DX =    0.0                 !
 ! A17   A(5,10,11)            134.5939         -DE/DX =    0.0                 !
 ! A18   A(5,12,13)            138.5451         -DE/DX =    0.0                 !
 ! A19   A(5,14,15)            137.8814         -DE/DX =    0.0                 !
 ! D1    D(3,1,2,6)            -34.1124         -DE/DX =    0.0                 !
 ! D2    D(4,1,2,6)             89.5058         -DE/DX =    0.0                 !
 ! D3    D(8,1,2,6)           -156.5763         -DE/DX =    0.0                 !
 ! D4    D(2,1,3,7)            150.6647         -DE/DX =    0.0                 !
 ! D5    D(4,1,3,7)             23.1333         -DE/DX =    0.0                 !
 ! D6    D(8,1,3,7)            -92.4431         -DE/DX =    0.0                 !
 ! D7    D(2,1,4,5)            104.8242         -DE/DX =    0.0                 !
 ! D8    D(3,1,4,5)           -133.2626         -DE/DX =    0.0                 !
 ! D9    D(8,1,4,5)            -10.6747         -DE/DX =    0.0                 !
 ! D10   D(2,1,8,9)             18.6386         -DE/DX =    0.0                 !
 ! D11   D(3,1,8,9)            -98.8017         -DE/DX =    0.0                 !
 ! D12   D(4,1,8,9)            141.5935         -DE/DX =    0.0                 !
 ! D13   D(1,4,5,10)            65.4112         -DE/DX =    0.0                 !
 ! D14   D(1,4,5,12)           -58.1562         -DE/DX =    0.0                 !
 ! D15   D(1,4,5,14)          -177.1565         -DE/DX =    0.0                 !
 ! D16   D(4,5,10,11)          -78.4887         -DE/DX =    0.0                 !
 ! D17   D(12,5,10,11)          44.6931         -DE/DX =    0.0                 !
 ! D18   D(14,5,10,11)         164.3119         -DE/DX =    0.0                 !
 ! D19   D(4,5,12,13)         -112.5215         -DE/DX =    0.0                 !
 ! D20   D(10,5,12,13)         123.7406         -DE/DX =    0.0                 !
 ! D21   D(14,5,12,13)           5.1724         -DE/DX =    0.0                 !
 ! D22   D(4,5,14,15)         -125.7476         -DE/DX =    0.0                 !
 ! D23   D(10,5,14,15)          -5.9638         -DE/DX =    0.0                 !
 ! D24   D(12,5,14,15)         114.6627         -DE/DX =    0.0                 !
 --------------------------------------------------------------------------------
 GradGradGradGradGradGradGradGradGradGradGradGradGradGradGradGradGradGrad

                          Input orientation:                          
 ---------------------------------------------------------------------
 Center     Atomic      Atomic             Coordinates (Angstroms)
 Number     Number       Type             X           Y           Z
 ---------------------------------------------------------------------
      1         14           0       -1.821505   -0.026714   -0.068918
      2          8           0       -2.678144    1.369094   -0.248038
      3          8           0       -2.905575   -1.269323   -0.165258
      4          8           0       -0.591764   -0.270544   -1.117953
      5         40           0        1.360975   -0.072048   -0.680193
      6          1           0       -3.432595    1.313020   -0.844104
      7          1           0       -2.536397   -2.088324   -0.513982
      8          8           0       -1.045416    0.100165    1.397724
      9          1           0       -1.405175    0.757349    2.003415
     10          8           0        1.934742   -1.410667    0.634274
     11          1           0        1.850749   -1.499562    1.588805
     12          8           0        1.733263    1.744988   -0.039840
     13          1           0        2.211347    2.527079   -0.329353
     14          8           0        2.361776   -0.396278   -2.331906
     15          1           0        3.075448   -0.965848   -2.633292
 ---------------------------------------------------------------------
                    Distance matrix (angstroms):
                    1          2          3          4          5
     1  Si   0.000000
     2  O    1.647481   0.000000
     3  O    1.651837   2.649495   0.000000
     4  O    1.634684   2.792517   2.694237   0.000000
     5  Zr   3.240971   4.310236   4.461175   2.011026   0.000000
     6  H    2.234146   0.963138   2.721595   3.263892   4.992354
     7  H    2.226969   3.470527   0.963672   2.729598   4.391185
     8  O    1.664167   2.642823   2.789014   2.582994   3.184041
     9  H    2.254473   2.657767   3.325919   3.385430   3.942237
    10  O    4.064382   5.457497   4.907942   3.279240   1.961870
    11  H    4.289846   5.666926   5.074679   3.847453   2.725074
    12  O    3.971921   4.432286   5.533590   3.260437   1.962210
    13  H    4.780542   5.025402   6.373577   4.038071   2.757115
    14  O    4.770486   5.732350   5.762079   3.195761   1.958285
    15  H    5.606972   6.651708   6.477340   4.028417   2.748252
                    6          7          8          9         10
     6  H    0.000000
     7  H    3.532888   0.000000
     8  O    3.492196   3.266057   0.000000
     9  H    3.539430   3.964191   0.963420   0.000000
    10  O    6.197772   4.665704   3.427362   4.210687   0.000000
    11  H    6.460912   4.900552   3.314123   3.983289   0.962334
    12  O    5.245906   5.757525   3.534556   3.872998   3.233138
    13  H    5.795946   6.623980   4.413526   4.653276   4.063365
    14  O    6.221735   5.491809   5.075977   5.857967   3.163790
    15  H    7.123837   6.102805   5.862336   6.674162   3.489421
                   11         12         13         14         15
    11  H    0.000000
    12  O    3.632270   0.000000
    13  H    4.474729   0.961275   0.000000
    14  O    4.104918   3.199002   3.546669   0.000000
    15  H    4.428412   3.984480   4.272627   0.961546   0.000000
 Stoichiometry    H6O7SiZr
 Framework group  C1[X(H6O7SiZr)]
 Deg. of freedom    39
 Full point group                 C1      NOp   1
 Largest Abelian subgroup         C1      NOp   1
 Largest concise Abelian subgroup C1      NOp   1
                         Standard orientation:                         
 ---------------------------------------------------------------------
 Center     Atomic      Atomic             Coordinates (Angstroms)
 Number     Number       Type             X           Y           Z
 ---------------------------------------------------------------------
      1         14           0       -2.007969   -0.056747   -0.088888
      2          8           0       -2.845858    1.237229   -0.670062
      3          8           0       -3.018761   -1.360240   -0.177027
      4          8           0       -0.586391   -0.396861   -0.820758
      5         40           0        1.232521   -0.013622   -0.053353
      6          1           0       -3.463131    1.039097   -1.382348
      7          1           0       -2.566398   -2.202190   -0.300117
      8          8           0       -1.546640    0.355858    1.455905
      9          1           0       -2.037462    1.081400    1.856979
     10          8           0        1.563308   -1.080931    1.559212
     11          1           0        1.291043   -1.016110    2.479949
     12          8           0        1.422306    1.902920    0.322306
     13          1           0        1.929047    2.653527    0.000046
     14          8           0        2.553339   -0.545782   -1.397648
     15          1           0        3.327207   -1.113949   -1.451374
 ---------------------------------------------------------------------
 Rotational constants (GHZ):           1.7127235           0.5485602           0.5379196

 **********************************************************************

            Population analysis using the SCF Density.

 **********************************************************************

 Orbital symmetries:
       Occupied  (A) (A) (A) (A) (A) (A) (A) (A) (A) (A) (A) (A)
                 (A) (A) (A) (A) (A) (A) (A) (A) (A) (A) (A) (A)
                 (A) (A) (A) (A) (A) (A) (A) (A) (A) (A) (A) (A)
                 (A) (A) (A) (A) (A) (A) (A) (A)
       Virtual   (A) (A) (A) (A) (A) (A) (A) (A) (A) (A) (A) (A)
                 (A) (A) (A) (A) (A) (A) (A) (A) (A) (A) (A) (A)
                 (A) (A) (A) (A) (A) (A) (A) (A) (A) (A) (A) (A)
                 (A) (A) (A) (A) (A) (A) (A) (A) (A) (A) (A) (A)
                 (A) (A) (A) (A) (A) (A) (A) (A) (A) (A) (A) (A)
                 (A) (A) (A) (A) (A) (A) (A) (A) (A) (A) (A) (A)
                 (A) (A) (A) (A) (A) (A) (A) (A) (A) (A) (A) (A)
                 (A) (A) (A) (A) (A) (A) (A) (A) (A) (A) (A) (A)
                 (A) (A) (A) (A) (A) (A) (A) (A) (A) (A) (A) (A)
                 (A) (A) (A) (A) (A) (A) (A) (A) (A) (A) (A) (A)
                 (A) (A) (A) (A)
 The electronic state is 1-A.
 Alpha  occ. eigenvalues --  -66.18912 -19.14643 -19.14404 -19.14343 -19.13855
 Alpha  occ. eigenvalues --  -19.13491 -19.13484 -19.12388  -5.33218  -3.69179
 Alpha  occ. eigenvalues --   -3.69137  -3.69134  -2.05861  -1.26617  -1.26502
 Alpha  occ. eigenvalues --   -1.26151  -1.02331  -0.99282  -0.98924  -0.95605
 Alpha  occ. eigenvalues --   -0.94645  -0.94356  -0.92951  -0.56775  -0.51745
 Alpha  occ. eigenvalues --   -0.51241  -0.48124  -0.47808  -0.47355  -0.43756
 Alpha  occ. eigenvalues --   -0.38705  -0.37299  -0.36914  -0.35166  -0.34775
 Alpha  occ. eigenvalues --   -0.33944  -0.33496  -0.32970  -0.32174  -0.31641
 Alpha  occ. eigenvalues --   -0.31145  -0.30637  -0.29915  -0.29708
 Alpha virt. eigenvalues --   -0.01463  -0.00731  -0.00139   0.00645   0.01534
 Alpha virt. eigenvalues --    0.02115   0.02625   0.02895   0.03486   0.08921
 Alpha virt. eigenvalues --    0.09822   0.10499   0.15189   0.15762   0.15957
 Alpha virt. eigenvalues --    0.17148   0.18255   0.19542   0.19916   0.23301
 Alpha virt. eigenvalues --    0.23948   0.24450   0.24952   0.25987   0.27191
 Alpha virt. eigenvalues --    0.30088   0.31000   0.34331   0.37845   0.40123
 Alpha virt. eigenvalues --    0.42048   0.57051   0.64656   0.71914   0.79504
 Alpha virt. eigenvalues --    0.80749   0.83306   0.85898   0.86916   0.87748
 Alpha virt. eigenvalues --    0.91082   0.92855   0.93465   0.95705   0.96235
 Alpha virt. eigenvalues --    0.98427   0.98662   0.99389   1.00879   1.03936
 Alpha virt. eigenvalues --    1.05452   1.07633   1.08053   1.09354   1.10325
 Alpha virt. eigenvalues --    1.14763   1.17230   1.18608   1.19757   1.21352
 Alpha virt. eigenvalues --    1.23590   1.25791   1.28689   1.36960   1.46509
 Alpha virt. eigenvalues --    1.47641   1.49873   1.53824   1.54067   1.56802
 Alpha virt. eigenvalues --    1.58572   1.58752   1.60530   1.61992   1.63281
 Alpha virt. eigenvalues --    1.63856   1.64385   1.66282   1.67941   1.70680
 Alpha virt. eigenvalues --    1.73476   1.74552   1.79335   1.80162   1.81341
 Alpha virt. eigenvalues --    1.81911   1.83984   1.84501   1.86602   1.88289
 Alpha virt. eigenvalues --    1.90723   1.92386   2.03324   2.07428   2.14526
 Alpha virt. eigenvalues --    2.35941   2.36135   2.36838   2.37891   2.38193
 Alpha virt. eigenvalues --    2.38927   2.44119   2.57945   2.61403   2.61775
 Alpha virt. eigenvalues --    2.63411   2.64105   2.64420   2.64595   2.64816
 Alpha virt. eigenvalues --    2.65248   2.65380   2.65606   2.66954   2.73616
 Alpha virt. eigenvalues --    2.77298   2.82159   3.41594   3.41811   3.43272
 Alpha virt. eigenvalues --    3.44063   3.44200   3.47076   4.00834
          Condensed to atoms (all electrons):
               1          2          3          4          5          6
     1  Si  11.519258   0.389056   0.392309   0.336736  -0.062175  -0.021685
     2  O    0.389056   7.959510  -0.020943  -0.011388   0.002087   0.303341
     3  O    0.392309  -0.020943   7.957136  -0.018890  -0.001407  -0.000785
     4  O    0.336736  -0.011388  -0.018890   8.290206   0.182058  -0.000348
     5  Zr  -0.062175   0.002087  -0.001407   0.182058   9.752930  -0.000967
     6  H   -0.021685   0.303341  -0.000785  -0.000348  -0.000967   0.385600
     7  H   -0.020891   0.000410   0.301110   0.001865  -0.001904  -0.000060
     8  O    0.305368  -0.019434  -0.014251  -0.027237   0.066838   0.000618
     9  H   -0.016654   0.000520  -0.000484   0.001023  -0.004638   0.000013
    10  O   -0.004656   0.000000   0.000001   0.000528   0.222684  -0.000000
    11  H    0.000134  -0.000000   0.000001  -0.000135  -0.016667  -0.000000
    12  O   -0.004637   0.000004   0.000000   0.000492   0.219083  -0.000000
    13  H    0.000160  -0.000001   0.000000  -0.000031  -0.015333  -0.000000
    14  O    0.000136   0.000000   0.000000   0.000806   0.212746   0.000000
    15  H   -0.000030   0.000000   0.000000  -0.000038  -0.015072  -0.000000
               7          8          9         10         11         12
     1  Si  -0.020891   0.305368  -0.016654  -0.004656   0.000134  -0.004637
     2  O    0.000410  -0.019434   0.000520   0.000000  -0.000000   0.000004
     3  O    0.301110  -0.014251  -0.000484   0.000001   0.000001   0.000000
     4  O    0.001865  -0.027237   0.001023   0.000528  -0.000135   0.000492
     5  Zr  -0.001904   0.066838  -0.004638   0.222684  -0.016667   0.219083
     6  H   -0.000060   0.000618   0.000013  -0.000000  -0.000000  -0.000000
     7  H    0.388909  -0.000421   0.000066  -0.000006  -0.000001   0.000000
     8  O   -0.000421   8.009243   0.301898  -0.001123  -0.000114  -0.000836
     9  H    0.000066   0.301898   0.379359   0.000028  -0.000002   0.000016
    10  O   -0.000006  -0.001123   0.000028   8.175534   0.296773   0.000828
    11  H   -0.000001  -0.000114  -0.000002   0.296773   0.385967  -0.000395
    12  O    0.000000  -0.000836   0.000016   0.000828  -0.000395   8.179530
    13  H    0.000000   0.000014  -0.000003  -0.000053   0.000000   0.296620
    14  O   -0.000000  -0.000001   0.000000   0.001075   0.000012   0.000893
    15  H    0.000000  -0.000000   0.000000  -0.000522  -0.000000  -0.000091
              13         14         15
     1  Si   0.000160   0.000136  -0.000030
     2  O   -0.000001   0.000000   0.000000
     3  O    0.000000   0.000000   0.000000
     4  O   -0.000031   0.000806  -0.000038
     5  Zr  -0.015333   0.212746  -0.015072
     6  H   -0.000000   0.000000  -0.000000
     7  H    0.000000  -0.000000   0.000000
     8  O    0.000014  -0.000001  -0.000000
     9  H   -0.000003   0.000000   0.000000
    10  O   -0.000053   0.001075  -0.000522
    11  H    0.000000   0.000012  -0.000000
    12  O    0.296620   0.000893  -0.000091
    13  H    0.389516  -0.000622  -0.000004
    14  O   -0.000622   8.180025   0.297361
    15  H   -0.000004   0.297361   0.385725
 Mulliken charges:
               1
     1  Si   1.187571
     2  O   -0.603161
     3  O   -0.593797
     4  O   -0.755648
     5  Zr   1.459737
     6  H    0.334273
     7  H    0.330922
     8  O   -0.620561
     9  H    0.338858
    10  O   -0.691091
    11  H    0.334428
    12  O   -0.691508
    13  H    0.329736
    14  O   -0.692430
    15  H    0.332672
 Sum of Mulliken charges =  -0.00000
 Mulliken charges with hydrogens summed into heavy atoms:
               1
     1  Si   1.187571
     2  O   -0.268888
     3  O   -0.262876
     4  O   -0.755648
     5  Zr   1.459737
     8  O   -0.281703
    10  O   -0.356663
    12  O   -0.361772
    14  O   -0.359759
 Electronic spatial extent (au):  <R**2>=           2022.6393
 Charge=              0.0000 electrons
 Dipole moment (field-independent basis, Debye):
    X=              0.8506    Y=              0.0574    Z=              0.3377  Tot=              0.9170
 Quadrupole moment (field-independent basis, Debye-Ang):
   XX=            -66.7842   YY=            -67.9585   ZZ=            -70.0147
   XY=              0.0946   XZ=              0.5907   YZ=              1.0795
 Traceless Quadrupole moment (field-independent basis, Debye-Ang):
   XX=              1.4682   YY=              0.2940   ZZ=             -1.7622
   XY=              0.0946   XZ=              0.5907   YZ=              1.0795
 Octapole moment (field-independent basis, Debye-Ang**2):
  XXX=             55.3731  YYY=             -1.5803  ZZZ=             20.5904  XYY=             17.8987
  XXY=              9.4780  XXZ=            -21.8210  XZZ=             -2.9737  YZZ=              3.3021
  YYZ=             -5.8648  XYZ=             -0.0924
 Hexadecapole moment (field-independent basis, Debye-Ang**3):
 XXXX=          -1562.9059 YYYY=           -335.5905 ZZZZ=           -318.9354 XXXY=            -85.5793
 XXXZ=              6.4006 YYYX=             74.9629 YYYZ=              8.8764 ZZZX=             26.7956
 ZZZY=            -10.7913 XXYY=           -300.4478 XXZZ=           -293.0721 YYZZ=           -122.3636
 XXYZ=             23.8789 YYXZ=            -22.9021 ZZXY=            -33.3698
 N-N= 6.493448305692D+02 E-N=-3.335359033515D+03  KE= 8.297851405909D+02
 1\1\GINC-GRA785\FOpt\RB3LYP\Gen\H6O7Si1Zr1\SARASHS\24-Jun-2020\0\\#n B
 3LYP/GEN PSEUDO=READ Opt(modredundant)\\Title\\0,1\Si,-1.8215053902,-0
 .0267137649,-0.0689180171\O,-2.6781444792,1.3690941427,-0.2480381172\O
 ,-2.9055749673,-1.2693229231,-0.1652575526\O,-0.5917638016,-0.27054398
 42,-1.11795331\Zr,1.3609753616,-0.0720475974,-0.6801931312\H,-3.432594
 6749,1.3130203159,-0.8441040644\H,-2.5363968824,-2.088324088,-0.513982
 2014\O,-1.0454159277,0.1001652447,1.3977236725\H,-1.4051747951,0.75734
 91463,2.0034146437\O,1.9347420209,-1.4106673304,0.6342739072\H,1.85074
 92657,-1.4995615481,1.5888047038\O,1.7332633935,1.7449881595,-0.039839
 6743\H,2.2113469626,2.5270794443,-0.3293534922\O,2.3617757524,-0.39627
 76637,-2.331905727\H,3.0754481617,-0.9658475536,-2.6332916399\\Version
 =ES64L-G16RevB.01\State=1-A\HF=-866.6874205\RMSD=2.799e-09\RMSF=1.996e
 -04\Dipole=0.3548357,-0.0092357,0.0645962\Quadrupole=1.1915833,-0.1003
 279,-1.0912554,0.1661068,0.0213432,0.990671\PG=C01 [X(H6O7Si1Zr1)]\\@


 HIGGLEDY-PIGGLEDY
 NIC'LAUS COPERNICUS
 LOOKED AT THE UNIVERSE,
 SPOKE TO THE THRONG;
 GIVE UP YOUR PTOLOMY,
 RISE UP AND FOLLOW ME,
 HELIOCENTRICALLY
 PTOLEMY'S WRONG.
   -- NANCY L. STARK
 Job cpu time:       0 days  0 hours 41 minutes 30.6 seconds.
 Elapsed time:       0 days  0 hours  2 minutes 42.1 seconds.
 File lengths (MBytes):  RWF=     23 Int=      0 D2E=      0 Chk=      3 Scr=      1
 Normal termination of Gaussian 16 at Wed Jun 24 13:55:33 2020.
