 Entering Gaussian System, Link 0=g16
 Initial command:
 /opt/software/gaussian/g16.b01/l1.exe "/localscratch/sarashs.33453155.0/Gau-7544.inp" -scrdir="/localscratch/sarashs.33453155.0/"
 Entering Link 1 = /opt/software/gaussian/g16.b01/l1.exe PID=      7545.
  
 Copyright (c) 1988-2017, Gaussian, Inc.  All Rights Reserved.
  
 This is part of the Gaussian(R) 16 program.  It is based on
 the Gaussian(R) 09 system (copyright 2009, Gaussian, Inc.),
 the Gaussian(R) 03 system (copyright 2003, Gaussian, Inc.),
 the Gaussian(R) 98 system (copyright 1998, Gaussian, Inc.),
 the Gaussian(R) 94 system (copyright 1995, Gaussian, Inc.),
 the Gaussian 92(TM) system (copyright 1992, Gaussian, Inc.),
 the Gaussian 90(TM) system (copyright 1990, Gaussian, Inc.),
 the Gaussian 88(TM) system (copyright 1988, Gaussian, Inc.),
 the Gaussian 86(TM) system (copyright 1986, Carnegie Mellon
 University), and the Gaussian 82(TM) system (copyright 1983,
 Carnegie Mellon University). Gaussian is a federally registered
 trademark of Gaussian, Inc.
  
 This software contains proprietary and confidential information,
 including trade secrets, belonging to Gaussian, Inc.
  
 This software is provided under written license and may be
 used, copied, transmitted, or stored only in accord with that
 written license.
  
 The following legend is applicable only to US Government
 contracts under FAR:
  
                    RESTRICTED RIGHTS LEGEND
  
 Use, reproduction and disclosure by the US Government is
 subject to restrictions as set forth in subparagraphs (a)
 and (c) of the Commercial Computer Software - Restricted
 Rights clause in FAR 52.227-19.
  
 Gaussian, Inc.
 340 Quinnipiac St., Bldg. 40, Wallingford CT 06492
  
  
 ---------------------------------------------------------------
 Warning -- This program may not be used in any manner that
 competes with the business of Gaussian, Inc. or will provide
 assistance to any competitor of Gaussian, Inc.  The licensee
 of this program is prohibited from giving any competitor of
 Gaussian, Inc. access to this program.  By using this program,
 the user acknowledges that Gaussian, Inc. is engaged in the
 business of creating and licensing software in the field of
 computational chemistry and represents and warrants to the
 licensee that it is not a competitor of Gaussian, Inc. and that
 it will not use this program in any manner prohibited above.
 ---------------------------------------------------------------
  

 Cite this work as:
 Gaussian 16, Revision B.01,
 M. J. Frisch, G. W. Trucks, H. B. Schlegel, G. E. Scuseria, 
 M. A. Robb, J. R. Cheeseman, G. Scalmani, V. Barone, 
 G. A. Petersson, H. Nakatsuji, X. Li, M. Caricato, A. V. Marenich, 
 J. Bloino, B. G. Janesko, R. Gomperts, B. Mennucci, H. P. Hratchian, 
 J. V. Ortiz, A. F. Izmaylov, J. L. Sonnenberg, D. Williams-Young, 
 F. Ding, F. Lipparini, F. Egidi, J. Goings, B. Peng, A. Petrone, 
 T. Henderson, D. Ranasinghe, V. G. Zakrzewski, J. Gao, N. Rega, 
 G. Zheng, W. Liang, M. Hada, M. Ehara, K. Toyota, R. Fukuda, 
 J. Hasegawa, M. Ishida, T. Nakajima, Y. Honda, O. Kitao, H. Nakai, 
 T. Vreven, K. Throssell, J. A. Montgomery, Jr., J. E. Peralta, 
 F. Ogliaro, M. J. Bearpark, J. J. Heyd, E. N. Brothers, K. N. Kudin, 
 V. N. Staroverov, T. A. Keith, R. Kobayashi, J. Normand, 
 K. Raghavachari, A. P. Rendell, J. C. Burant, S. S. Iyengar, 
 J. Tomasi, M. Cossi, J. M. Millam, M. Klene, C. Adamo, R. Cammi, 
 J. W. Ochterski, R. L. Martin, K. Morokuma, O. Farkas, 
 J. B. Foresman, and D. J. Fox, Gaussian, Inc., Wallingford CT, 2016.
 
 ******************************************
 Gaussian 16:  ES64L-G16RevB.01 20-Dec-2017
                24-Jun-2020 
 ******************************************
 %NProcShared=16
 Will use up to   16 processors via shared memory.
 ------------------------------------------
 #n B3LYP/GEN PSEUDO=READ Opt(modredundant)
 ------------------------------------------
 1/18=120,19=15,26=3,38=1/1,3;
 2/9=110,12=2,17=6,18=5,40=1/2;
 3/5=7,11=2,16=1,17=8,25=1,30=1,71=1,74=-5/1,2,3;
 4//1;
 5/5=2,38=5/2;
 6/7=2,8=2,9=2,10=2,28=1/1;
 7//1,2,3,16;
 1/18=20,19=15,26=3/3(2);
 2/9=110/2;
 99//99;
 2/9=110/2;
 3/5=7,6=1,11=2,16=1,17=8,25=1,30=1,71=1,74=-5,82=7/1,2,3;
 4/5=5,16=3,69=1/1;
 5/5=2,38=5/2;
 7//1,2,3,16;
 1/18=20,19=15,26=3/3(-5);
 2/9=110/2;
 6/7=2,8=2,9=2,10=2,19=2,28=1/1;
 99/9=1/99;
 -----
 Title
 -----
 Symbolic Z-matrix:
 Charge =  0 Multiplicity = 1
 Si                   -1.90698  -0.04093  -0.13187 
 O                    -2.77661   1.33183  -0.36828 
 O                    -2.96472  -1.30138  -0.09409 
 O                    -0.62539  -0.3216   -1.09659 
 Zr                    1.40186  -0.1956   -1.37871 
 H                    -3.57833   1.23701  -0.89318 
 H                    -2.59505  -2.1428   -0.38501 
 O                    -1.07346   0.19403   1.32035 
 H                    -1.20745   1.04108   1.76425 
 O                     2.39179  -1.67199  -0.5326 
 H                     2.75833  -1.78488   0.35015 
 O                     2.14934   1.60278  -1.00785 
 H                     2.5859    2.19497  -1.63034 
 O                     1.66391  -0.46628  -3.29705 
 H                     2.07513  -1.06219  -3.92834 
 
 The following ModRedundant input section has been read:
 A       1       4       5 F                                                   
 

 GradGradGradGradGradGradGradGradGradGradGradGradGradGradGradGradGradGrad
 Berny optimization.
 Initialization pass.
                           ----------------------------
                           !    Initial Parameters    !
                           ! (Angstroms and Degrees)  !
 --------------------------                            --------------------------
 ! Name  Definition              Value          Derivative Info.                !
 --------------------------------------------------------------------------------
 ! R1    R(1,2)                  1.6421         estimate D2E/DX2                !
 ! R2    R(1,3)                  1.6459         estimate D2E/DX2                !
 ! R3    R(1,4)                  1.6285         estimate D2E/DX2                !
 ! R4    R(1,8)                  1.6908         estimate D2E/DX2                !
 ! R5    R(2,6)                  0.9629         estimate D2E/DX2                !
 ! R6    R(3,7)                  0.964          estimate D2E/DX2                !
 ! R7    R(4,5)                  2.0507         estimate D2E/DX2                !
 ! R8    R(5,10)                 1.9687         estimate D2E/DX2                !
 ! R9    R(5,12)                 1.9825         estimate D2E/DX2                !
 ! R10   R(5,14)                 1.955          estimate D2E/DX2                !
 ! R11   R(8,9)                  0.9657         estimate D2E/DX2                !
 ! R12   R(10,11)                0.9625         estimate D2E/DX2                !
 ! R13   R(12,13)                0.9637         estimate D2E/DX2                !
 ! R14   R(14,15)                0.9606         estimate D2E/DX2                !
 ! A1    A(2,1,3)              107.6477         estimate D2E/DX2                !
 ! A2    A(2,1,4)              118.3958         estimate D2E/DX2                !
 ! A3    A(2,1,8)              105.5776         estimate D2E/DX2                !
 ! A4    A(3,1,4)              112.7909         estimate D2E/DX2                !
 ! A5    A(3,1,8)              113.7977         estimate D2E/DX2                !
 ! A6    A(4,1,8)               98.3257         estimate D2E/DX2                !
 ! A7    A(1,2,6)              115.9167         estimate D2E/DX2                !
 ! A8    A(1,3,7)              114.5237         estimate D2E/DX2                !
 ! A9    A(1,4,5)              148.0937         Frozen                          !
 ! A10   A(4,5,10)             113.0726         estimate D2E/DX2                !
 ! A11   A(4,5,12)             113.7489         estimate D2E/DX2                !
 ! A12   A(4,5,14)             105.0108         estimate D2E/DX2                !
 ! A13   A(10,5,12)            114.2237         estimate D2E/DX2                !
 ! A14   A(10,5,14)            104.507          estimate D2E/DX2                !
 ! A15   A(12,5,14)            104.9879         estimate D2E/DX2                !
 ! A16   A(1,8,9)              116.6352         estimate D2E/DX2                !
 ! A17   A(5,10,11)            132.35           estimate D2E/DX2                !
 ! A18   A(5,12,13)            127.3994         estimate D2E/DX2                !
 ! A19   A(5,14,15)            142.0124         estimate D2E/DX2                !
 ! D1    D(3,1,2,6)            -31.5445         estimate D2E/DX2                !
 ! D2    D(4,1,2,6)             97.8074         estimate D2E/DX2                !
 ! D3    D(8,1,2,6)           -153.4334         estimate D2E/DX2                !
 ! D4    D(2,1,3,7)            151.7162         estimate D2E/DX2                !
 ! D5    D(4,1,3,7)             19.2636         estimate D2E/DX2                !
 ! D6    D(8,1,3,7)            -91.6497         estimate D2E/DX2                !
 ! D7    D(2,1,4,5)             96.0059         estimate D2E/DX2                !
 ! D8    D(3,1,4,5)           -137.0555         estimate D2E/DX2                !
 ! D9    D(8,1,4,5)            -16.8016         estimate D2E/DX2                !
 ! D10   D(2,1,8,9)             -0.7356         estimate D2E/DX2                !
 ! D11   D(3,1,8,9)           -118.5698         estimate D2E/DX2                !
 ! D12   D(4,1,8,9)            121.931          estimate D2E/DX2                !
 ! D13   D(1,4,5,10)            82.6377         estimate D2E/DX2                !
 ! D14   D(1,4,5,12)           -49.7898         estimate D2E/DX2                !
 ! D15   D(1,4,5,14)          -164.0264         estimate D2E/DX2                !
 ! D16   D(4,5,10,11)          -88.238          estimate D2E/DX2                !
 ! D17   D(12,5,10,11)          43.9574         estimate D2E/DX2                !
 ! D18   D(14,5,10,11)         158.1207         estimate D2E/DX2                !
 ! D19   D(4,5,12,13)         -116.9748         estimate D2E/DX2                !
 ! D20   D(10,5,12,13)         111.1546         estimate D2E/DX2                !
 ! D21   D(14,5,12,13)          -2.7246         estimate D2E/DX2                !
 ! D22   D(4,5,14,15)         -117.1598         estimate D2E/DX2                !
 ! D23   D(10,5,14,15)           2.0814         estimate D2E/DX2                !
 ! D24   D(12,5,14,15)         122.6129         estimate D2E/DX2                !
 --------------------------------------------------------------------------------
 Trust Radius=3.00D-01 FncErr=1.00D-07 GrdErr=1.00D-06 EigMax=2.50D+02 EigMin=1.00D-04
 Number of steps in this run=     67 maximum allowed number of steps=    100.
 GradGradGradGradGradGradGradGradGradGradGradGradGradGradGradGradGradGrad

                          Input orientation:                          
 ---------------------------------------------------------------------
 Center     Atomic      Atomic             Coordinates (Angstroms)
 Number     Number       Type             X           Y           Z
 ---------------------------------------------------------------------
      1         14           0       -1.906980   -0.040930   -0.131870
      2          8           0       -2.776610    1.331830   -0.368280
      3          8           0       -2.964720   -1.301380   -0.094090
      4          8           0       -0.625390   -0.321600   -1.096590
      5         40           0        1.401860   -0.195600   -1.378710
      6          1           0       -3.578330    1.237010   -0.893180
      7          1           0       -2.595050   -2.142800   -0.385010
      8          8           0       -1.073460    0.194030    1.320350
      9          1           0       -1.207450    1.041080    1.764250
     10          8           0        2.391790   -1.671990   -0.532600
     11          1           0        2.758330   -1.784880    0.350150
     12          8           0        2.149340    1.602780   -1.007850
     13          1           0        2.585900    2.194970   -1.630340
     14          8           0        1.663910   -0.466280   -3.297050
     15          1           0        2.075130   -1.062190   -3.928340
 ---------------------------------------------------------------------
                    Distance matrix (angstroms):
                    1          2          3          4          5
     1  Si   0.000000
     2  O    1.642138   0.000000
     3  O    1.645897   2.654121   0.000000
     4  O    1.628476   2.809273   2.727167   0.000000
     5  Zr   3.539344   4.562195   4.684017   2.050661   0.000000
     6  H    2.237439   0.962946   2.731023   3.345220   5.204844
     7  H    2.226068   3.479411   0.963991   2.775370   4.555691
     8  O    1.690830   2.654577   2.795310   2.511621   3.682926
     9  H    2.292457   2.663547   3.468219   3.221816   4.268029
    10  O    4.615232   5.980158   5.387192   3.353358   1.968652
    11  H    5.003881   6.392619   5.760592   3.960279   2.711970
    12  O    4.463503   4.974681   5.951698   3.377905   1.982532
    13  H    5.237426   5.576228   6.737500   4.114656   2.679570
    14  O    4.790672   5.615079   5.690392   3.178656   1.954985
    15  H    5.595834   6.476476   6.337095   3.982473   2.775767
                    6          7          8          9         10
     6  H    0.000000
     7  H    3.556430   0.000000
     8  O    3.501699   3.268679   0.000000
     9  H    3.566706   4.084341   0.965657   0.000000
    10  O    6.650912   5.011189   4.350105   5.058735   0.000000
    11  H    7.129583   5.415463   4.420406   5.070813   0.962467
    12  O    5.740483   6.076721   4.218001   4.389543   3.317946
    13  H    6.281626   6.870905   5.108938   5.219598   4.024437
    14  O    6.013391   5.424890   5.408289   6.011123   3.102536
    15  H    6.816167   5.960997   6.248236   6.899613   3.464561
                   11         12         13         14         15
    11  H    0.000000
    12  O    3.700172   0.000000
    13  H    4.448739   0.963726   0.000000
    14  O    4.029706   3.123634   3.272650   0.000000
    15  H    4.392553   3.954344   4.018803   0.960592   0.000000
 Stoichiometry    H6O7SiZr
 Framework group  C1[X(H6O7SiZr)]
 Deg. of freedom    39
 Full point group                 C1      NOp   1
 Largest Abelian subgroup         C1      NOp   1
 Largest concise Abelian subgroup C1      NOp   1
                         Standard orientation:                         
 ---------------------------------------------------------------------
 Center     Atomic      Atomic             Coordinates (Angstroms)
 Number     Number       Type             X           Y           Z
 ---------------------------------------------------------------------
      1         14           0       -2.207016   -0.045155   -0.058616
      2          8           0       -3.001961    1.224028   -0.732301
      3          8           0       -3.135921   -1.386739   -0.273705
      4          8           0       -0.648130   -0.285692   -0.463525
      5         40           0        1.331753   -0.004714   -0.009298
      6          1           0       -3.549501    1.019428   -1.497549
      7          1           0       -2.640860   -2.212387   -0.323694
      8          8           0       -1.976975    0.372510    1.563587
      9          1           0       -2.309399    1.236109    1.839604
     10          8           0        2.020782   -1.319549    1.283776
     11          1           0        2.044147   -1.331908    2.245880
     12          8           0        1.793961    1.875315    0.417657
     13          1           0        2.395697    2.453973   -0.063837
     14          8           0        2.292092   -0.397688   -1.666189
     15          1           0        2.937213   -1.001951   -2.042253
 ---------------------------------------------------------------------
 Rotational constants (GHZ):           1.6713900           0.4807758           0.4716687
 General basis read from cards:  (5D, 7F)
 ======================================================================================================
                                       Pseudopotential Parameters
 ======================================================================================================
  Center     Atomic      Valence      Angular      Power
  Number     Number     Electrons     Momentum     of R      Exponent        Coefficient   SO-Coeffient
 ======================================================================================================
    1         14
                                   No pseudopotential on this center.
    2          8
                                   No pseudopotential on this center.
    3          8
                                   No pseudopotential on this center.
    4          8
                                   No pseudopotential on this center.
    5         40           12
                                      F and up 
                                                     0      645.9321873       -0.04258430    0.00000000
                                                     1      134.7547401      -20.22224090    0.00000000
                                                     2       42.3074619     -101.86951720    0.00000000
                                                     2       12.0003227      -41.61957840    0.00000000
                                                     2        4.1260454       -4.69861600    0.00000000
                                      S - F
                                                     0      117.6251862        2.79105590    0.00000000
                                                     1       22.9646089       41.94894590    0.00000000
                                                     2        4.5225298       67.72718660    0.00000000
                                      P - F
                                                     0       47.1953145        4.99111440    0.00000000
                                                     1       48.0356033       20.71931720    0.00000000
                                                     2       19.4541456      195.58677580    0.00000000
                                                     2        4.0512875       48.28771760    0.00000000
                                      D - F
                                                     0       79.9073983        3.00492260    0.00000000
                                                     1       45.8263798       25.93779890    0.00000000
                                                     2       26.9903522      125.12449340    0.00000000
                                                     2        9.6835718       70.76340220    0.00000000
                                                     2        2.7995666       15.04928220    0.00000000
    6          1
                                   No pseudopotential on this center.
    7          1
                                   No pseudopotential on this center.
    8          8
                                   No pseudopotential on this center.
    9          1
                                   No pseudopotential on this center.
   10          8
                                   No pseudopotential on this center.
   11          1
                                   No pseudopotential on this center.
   12          8
                                   No pseudopotential on this center.
   13          1
                                   No pseudopotential on this center.
   14          8
                                   No pseudopotential on this center.
   15          1
                                   No pseudopotential on this center.
 ======================================================================================================
 There are   178 symmetry adapted cartesian basis functions of A   symmetry.
 There are   168 symmetry adapted basis functions of A   symmetry.
   168 basis functions,   339 primitive gaussians,   178 cartesian basis functions
    44 alpha electrons       44 beta electrons
       nuclear repulsion energy       630.7626537180 Hartrees.
 NAtoms=   15 NActive=   15 NUniq=   15 SFac= 1.00D+00 NAtFMM=   60 NAOKFM=F Big=F
 Integral buffers will be    131072 words long.
 Raffenetti 2 integral format.
 Two-electron integral symmetry is turned on.
 One-electron integrals computed using PRISM.
   1 Symmetry operations used in ECPInt.
 ECPInt:  NShTT=    1770 NPrTT=   10201 LenC2=    1629 LenP2D=    6461.
 LDataN:  DoStor=T MaxTD1= 5 Len=  102
 NBasis=   168 RedAO= T EigKep=  1.67D-02  NBF=   168
 NBsUse=   168 1.00D-06 EigRej= -1.00D+00 NBFU=   168
 Defaulting to unpruned grid for atomic number  40.
 ExpMin= 2.43D-02 ExpMax= 1.61D+04 ExpMxC= 2.43D+03 IAcc=3 IRadAn=         5 AccDes= 0.00D+00
 Harris functional with IExCor=  402 and IRadAn=       5 diagonalized for initial guess.
 HarFok:  IExCor=  402 AccDes= 0.00D+00 IRadAn=         5 IDoV= 1 UseB2=F ITyADJ=14
 ICtDFT=  3500011 ScaDFX=  1.000000  1.000000  1.000000  1.000000
 Defaulting to unpruned grid for atomic number  40.
 FoFCou: FMM=F IPFlag=           0 FMFlag=      100000 FMFlg1=           0
         NFxFlg=           0 DoJE=T BraDBF=F KetDBF=T FulRan=T
         wScrn=  0.000000 ICntrl=       500 IOpCl=  0 I1Cent=   200000004 NGrid=           0
         NMat0=    1 NMatS0=      1 NMatT0=    0 NMatD0=    1 NMtDS0=    0 NMtDT0=    0
 Petite list used in FoFCou.
 Requested convergence on RMS density matrix=1.00D-08 within 128 cycles.
 Requested convergence on MAX density matrix=1.00D-06.
 Requested convergence on             energy=1.00D-06.
 No special actions if energy rises.
 Defaulting to unpruned grid for atomic number  40.
 Defaulting to unpruned grid for atomic number  40.
 Defaulting to unpruned grid for atomic number  40.
 Defaulting to unpruned grid for atomic number  40.
 Defaulting to unpruned grid for atomic number  40.
 Defaulting to unpruned grid for atomic number  40.
 Defaulting to unpruned grid for atomic number  40.
 Defaulting to unpruned grid for atomic number  40.
 Defaulting to unpruned grid for atomic number  40.
 Defaulting to unpruned grid for atomic number  40.
 Defaulting to unpruned grid for atomic number  40.
 Defaulting to unpruned grid for atomic number  40.
 Defaulting to unpruned grid for atomic number  40.
 Defaulting to unpruned grid for atomic number  40.
 Defaulting to unpruned grid for atomic number  40.
 Defaulting to unpruned grid for atomic number  40.
 SCF Done:  E(RB3LYP) =  -866.677069910     A.U. after   14 cycles
            NFock= 14  Conv=0.79D-08     -V/T= 2.0446

 **********************************************************************

            Population analysis using the SCF Density.

 **********************************************************************

 Orbital symmetries:
       Occupied  (A) (A) (A) (A) (A) (A) (A) (A) (A) (A) (A) (A)
                 (A) (A) (A) (A) (A) (A) (A) (A) (A) (A) (A) (A)
                 (A) (A) (A) (A) (A) (A) (A) (A) (A) (A) (A) (A)
                 (A) (A) (A) (A) (A) (A) (A) (A)
       Virtual   (A) (A) (A) (A) (A) (A) (A) (A) (A) (A) (A) (A)
                 (A) (A) (A) (A) (A) (A) (A) (A) (A) (A) (A) (A)
                 (A) (A) (A) (A) (A) (A) (A) (A) (A) (A) (A) (A)
                 (A) (A) (A) (A) (A) (A) (A) (A) (A) (A) (A) (A)
                 (A) (A) (A) (A) (A) (A) (A) (A) (A) (A) (A) (A)
                 (A) (A) (A) (A) (A) (A) (A) (A) (A) (A) (A) (A)
                 (A) (A) (A) (A) (A) (A) (A) (A) (A) (A) (A) (A)
                 (A) (A) (A) (A) (A) (A) (A) (A) (A) (A) (A) (A)
                 (A) (A) (A) (A) (A) (A) (A) (A) (A) (A) (A) (A)
                 (A) (A) (A) (A) (A) (A) (A) (A) (A) (A) (A) (A)
                 (A) (A) (A) (A)
 The electronic state is 1-A.
 Alpha  occ. eigenvalues --  -66.18485 -19.14591 -19.14409 -19.14408 -19.14291
 Alpha  occ. eigenvalues --  -19.14060 -19.12094 -19.11803  -5.32699  -3.68686
 Alpha  occ. eigenvalues --   -3.68635  -3.68586  -2.06995  -1.27685  -1.27515
 Alpha  occ. eigenvalues --   -1.26883  -1.01737  -0.99030  -0.96983  -0.96173
 Alpha  occ. eigenvalues --   -0.95501  -0.94981  -0.92211  -0.56226  -0.51328
 Alpha  occ. eigenvalues --   -0.49651  -0.49053  -0.48143  -0.47521  -0.43746
 Alpha  occ. eigenvalues --   -0.37804  -0.37111  -0.35397  -0.35169  -0.34860
 Alpha  occ. eigenvalues --   -0.33946  -0.33080  -0.32838  -0.32312  -0.31892
 Alpha  occ. eigenvalues --   -0.31569  -0.31172  -0.29753  -0.27720
 Alpha virt. eigenvalues --   -0.02767  -0.02076  -0.01068   0.00674   0.01099
 Alpha virt. eigenvalues --    0.01364   0.01525   0.02285   0.02466   0.08685
 Alpha virt. eigenvalues --    0.09540   0.10426   0.14937   0.15046   0.15571
 Alpha virt. eigenvalues --    0.16851   0.18323   0.19755   0.19942   0.22613
 Alpha virt. eigenvalues --    0.23278   0.24000   0.24970   0.25970   0.26917
 Alpha virt. eigenvalues --    0.28168   0.28563   0.33560   0.37359   0.40078
 Alpha virt. eigenvalues --    0.42947   0.57386   0.64955   0.71539   0.79874
 Alpha virt. eigenvalues --    0.80661   0.83372   0.84770   0.86261   0.87548
 Alpha virt. eigenvalues --    0.91745   0.92586   0.93214   0.94378   0.95361
 Alpha virt. eigenvalues --    0.97843   0.98756   1.00162   1.00767   1.03851
 Alpha virt. eigenvalues --    1.05355   1.06403   1.08630   1.09582   1.10839
 Alpha virt. eigenvalues --    1.14524   1.16468   1.17764   1.19757   1.20222
 Alpha virt. eigenvalues --    1.21577   1.24391   1.26313   1.35898   1.46068
 Alpha virt. eigenvalues --    1.47639   1.48203   1.50323   1.51291   1.56521
 Alpha virt. eigenvalues --    1.58035   1.58707   1.59891   1.60521   1.62880
 Alpha virt. eigenvalues --    1.63528   1.65014   1.65740   1.68276   1.70270
 Alpha virt. eigenvalues --    1.73106   1.77412   1.79069   1.79624   1.80800
 Alpha virt. eigenvalues --    1.81042   1.82322   1.83962   1.85197   1.86902
 Alpha virt. eigenvalues --    1.88681   1.93140   2.01566   2.09598   2.13741
 Alpha virt. eigenvalues --    2.35562   2.36425   2.36973   2.37388   2.38199
 Alpha virt. eigenvalues --    2.38798   2.43879   2.57483   2.60132   2.60895
 Alpha virt. eigenvalues --    2.63257   2.63731   2.63919   2.64071   2.64292
 Alpha virt. eigenvalues --    2.64690   2.64937   2.65420   2.68218   2.72253
 Alpha virt. eigenvalues --    2.77212   2.83412   3.41246   3.42375   3.43433
 Alpha virt. eigenvalues --    3.43450   3.44272   3.46562   3.91213
          Condensed to atoms (all electrons):
               1          2          3          4          5          6
     1  Si  11.477258   0.382830   0.386654   0.350725  -0.024995  -0.021661
     2  O    0.382830   7.961935  -0.019931  -0.010063   0.001900   0.302914
     3  O    0.386654  -0.019931   7.956608  -0.016572  -0.000495  -0.000444
     4  O    0.350725  -0.010063  -0.016572   8.280308   0.189548  -0.000305
     5  Zr  -0.024995   0.001900  -0.000495   0.189548   9.696680  -0.000711
     6  H   -0.021661   0.302914  -0.000444  -0.000305  -0.000711   0.386637
     7  H   -0.021716   0.000396   0.301776   0.001138  -0.000865  -0.000054
     8  O    0.326702  -0.019704  -0.013622  -0.038639   0.035826   0.000577
     9  H   -0.020249   0.000657  -0.000090   0.001263  -0.002390   0.000006
    10  O   -0.001560  -0.000000   0.000000   0.000400   0.214408  -0.000000
    11  H   -0.000051  -0.000000   0.000000  -0.000068  -0.014536   0.000000
    12  O   -0.001666   0.000001   0.000000   0.000476   0.221062   0.000000
    13  H    0.000052  -0.000000  -0.000000  -0.000002  -0.018127  -0.000000
    14  O   -0.000425   0.000000   0.000000   0.000216   0.220393   0.000000
    15  H   -0.000029   0.000000  -0.000000  -0.000056  -0.016707  -0.000000
               7          8          9         10         11         12
     1  Si  -0.021716   0.326702  -0.020249  -0.001560  -0.000051  -0.001666
     2  O    0.000396  -0.019704   0.000657  -0.000000  -0.000000   0.000001
     3  O    0.301776  -0.013622  -0.000090   0.000000   0.000000   0.000000
     4  O    0.001138  -0.038639   0.001263   0.000400  -0.000068   0.000476
     5  Zr  -0.000865   0.035826  -0.002390   0.214408  -0.014536   0.221062
     6  H   -0.000054   0.000577   0.000006  -0.000000   0.000000   0.000000
     7  H    0.387502  -0.000313   0.000051  -0.000000  -0.000000  -0.000000
     8  O   -0.000313   8.049495   0.298063  -0.000026  -0.000019  -0.000051
     9  H    0.000051   0.298063   0.397600  -0.000001   0.000001   0.000008
    10  O   -0.000000  -0.000026  -0.000001   8.185090   0.293451   0.000881
    11  H   -0.000000  -0.000019   0.000001   0.293451   0.388446  -0.000281
    12  O   -0.000000  -0.000051   0.000008   0.000881  -0.000281   8.178682
    13  H   -0.000000   0.000001  -0.000001  -0.000049  -0.000000   0.294709
    14  O   -0.000000  -0.000000   0.000000   0.000851  -0.000017   0.000589
    15  H    0.000000  -0.000000   0.000000  -0.000596   0.000002  -0.000128
              13         14         15
     1  Si   0.000052  -0.000425  -0.000029
     2  O   -0.000000   0.000000   0.000000
     3  O   -0.000000   0.000000  -0.000000
     4  O   -0.000002   0.000216  -0.000056
     5  Zr  -0.018127   0.220393  -0.016707
     6  H   -0.000000   0.000000  -0.000000
     7  H   -0.000000  -0.000000   0.000000
     8  O    0.000001  -0.000000  -0.000000
     9  H   -0.000001   0.000000   0.000000
    10  O   -0.000049   0.000851  -0.000596
    11  H   -0.000000  -0.000017   0.000002
    12  O    0.294709   0.000589  -0.000128
    13  H    0.389575  -0.001474  -0.000008
    14  O   -0.001474   8.162663   0.299724
    15  H   -0.000008   0.299724   0.382415
 Mulliken charges:
               1
     1  Si   1.168131
     2  O   -0.600936
     3  O   -0.593884
     4  O   -0.758369
     5  Zr   1.499009
     6  H    0.333041
     7  H    0.332084
     8  O   -0.638290
     9  H    0.325083
    10  O   -0.692850
    11  H    0.333074
    12  O   -0.694282
    13  H    0.335323
    14  O   -0.682519
    15  H    0.335383
 Sum of Mulliken charges =  -0.00000
 Mulliken charges with hydrogens summed into heavy atoms:
               1
     1  Si   1.168131
     2  O   -0.267895
     3  O   -0.261800
     4  O   -0.758369
     5  Zr   1.499009
     8  O   -0.313207
    10  O   -0.359777
    12  O   -0.358958
    14  O   -0.347135
 Electronic spatial extent (au):  <R**2>=           2243.8134
 Charge=             -0.0000 electrons
 Dipole moment (field-independent basis, Debye):
    X=              1.9682    Y=             -0.3937    Z=             -0.7567  Tot=              2.1451
 Quadrupole moment (field-independent basis, Debye-Ang):
   XX=            -68.4114   YY=            -69.3368   ZZ=            -68.1020
   XY=             -0.4634   XZ=              2.2062   YZ=              1.0387
 Traceless Quadrupole moment (field-independent basis, Debye-Ang):
   XX=              0.2053   YY=             -0.7200   ZZ=              0.5147
   XY=             -0.4634   XZ=              2.2062   YZ=              1.0387
 Octapole moment (field-independent basis, Debye-Ang**2):
  XXX=             60.5741  YYY=             -6.4720  ZZZ=              8.0290  XYY=             12.6844
  XXY=             15.2271  XXZ=            -27.8340  XZZ=             13.9492  YZZ=             -4.0496
  YYZ=             -5.7851  XYZ=             -2.7538
 Hexadecapole moment (field-independent basis, Debye-Ang**3):
 XXXX=          -1877.5419 YYYY=           -373.4387 ZZZZ=           -329.5421 XXXY=            -56.2224
 XXXZ=             10.0760 YYYX=             67.4676 YYYZ=              5.2475 ZZZX=             37.5062
 ZZZY=             -4.7504 XXYY=           -351.0418 XXZZ=           -299.5104 YYZZ=           -113.7535
 XXYZ=             14.8150 YYXZ=            -30.9228 ZZXY=            -59.6299
 N-N= 6.307626537180D+02 E-N=-3.298169499796D+03  KE= 8.296456948669D+02
   1 Symmetry operations used in ECPInt.
 ECPInt:  NShTT=    1770 NPrTT=   10201 LenC2=    1629 LenP2D=    6461.
 LDataN:  DoStor=T MaxTD1= 6 Len=  172
 Calling FoFJK, ICntrl=      2127 FMM=F ISym2X=0 I1Cent= 0 IOpClX= 0 NMat=1 NMatS=1 NMatT=0.
 Defaulting to unpruned grid for atomic number  40.
 Defaulting to unpruned grid for atomic number  40.
 Defaulting to unpruned grid for atomic number  40.
 Defaulting to unpruned grid for atomic number  40.
 Defaulting to unpruned grid for atomic number  40.
 Defaulting to unpruned grid for atomic number  40.
 Defaulting to unpruned grid for atomic number  40.
 Defaulting to unpruned grid for atomic number  40.
 Defaulting to unpruned grid for atomic number  40.
 Defaulting to unpruned grid for atomic number  40.
 Defaulting to unpruned grid for atomic number  40.
 Defaulting to unpruned grid for atomic number  40.
 Defaulting to unpruned grid for atomic number  40.
 Defaulting to unpruned grid for atomic number  40.
 Defaulting to unpruned grid for atomic number  40.
 Defaulting to unpruned grid for atomic number  40.
 ***** Axes restored to original set *****
 -------------------------------------------------------------------
 Center     Atomic                   Forces (Hartrees/Bohr)
 Number     Number              X              Y              Z
 -------------------------------------------------------------------
      1       14           0.025823385    0.006559197    0.028494608
      2        8          -0.002016788    0.001660574   -0.004453589
      3        8          -0.000309382   -0.001768323   -0.003645880
      4        8           0.015790887   -0.003025280   -0.018382203
      5       40          -0.021381415    0.001034066   -0.008828717
      6        1          -0.000108773    0.000070313   -0.000077688
      7        1          -0.000115877    0.000260400    0.000597004
      8        8          -0.010014755    0.001416541   -0.003149871
      9        1          -0.003591683   -0.003436601   -0.001621578
     10        8          -0.002783039    0.005126969    0.004593876
     11        1           0.001831029   -0.002123962    0.000086297
     12        8          -0.002756889   -0.008218260    0.000962852
     13        1          -0.000090810    0.001260068    0.001215077
     14        8          -0.000756339    0.001992368    0.003451651
     15        1           0.000480449   -0.000808068    0.000758161
 -------------------------------------------------------------------
 Cartesian Forces:  Max     0.028494608 RMS     0.008161783

 GradGradGradGradGradGradGradGradGradGradGradGradGradGradGradGradGradGrad
 Berny optimization.
 FormGI is forming the generalized inverse of G from B-inverse, IUseBI=4.
 Internal  Forces:  Max     0.025581438 RMS     0.005925528
 Search for a local minimum.
 Step number   1 out of a maximum of   67
 All quantities printed in internal units (Hartrees-Bohrs-Radians)
 Mixed Optimization -- RFO/linear search
 Second derivative matrix not updated -- first step.
 ITU=  0
     Eigenvalues ---    0.00230   0.00230   0.00230   0.00230   0.03138
     Eigenvalues ---    0.03732   0.03782   0.03962   0.07595   0.10447
     Eigenvalues ---    0.11446   0.11649   0.12384   0.13641   0.15842
     Eigenvalues ---    0.16000   0.16000   0.16000   0.16000   0.16000
     Eigenvalues ---    0.16000   0.18952   0.19683   0.19789   0.19910
     Eigenvalues ---    0.19986   0.20440   0.21460   0.37017   0.43277
     Eigenvalues ---    0.43863   0.46083   0.54274   0.54624   0.54680
     Eigenvalues ---    0.54844   0.54946   0.553461000.000001000.00000
     Eigenvalues --- 1000.000001000.000001000.000001000.000001000.00000
     Eigenvalues --- 1000.000001000.000001000.000001000.000001000.00000
     Eigenvalues --- 1000.000001000.000001000.000001000.000001000.00000
     Eigenvalues --- 1000.000001000.00000
 RFO step:  Lambda=-1.19198299D-02 EMin= 2.30000000D-03
 Linear search not attempted -- first point.
 Iteration  1 RMS(Cart)=  0.08006880 RMS(Int)=  0.00212149
 Iteration  2 RMS(Cart)=  0.00348619 RMS(Int)=  0.00074121
 Iteration  3 RMS(Cart)=  0.00000345 RMS(Int)=  0.00074120
 Iteration  4 RMS(Cart)=  0.00000000 RMS(Int)=  0.00074120
 Iteration  1 RMS(Cart)=  0.00000000 RMS(Int)=  0.00000000
 Variable       Old X    -DE/DX   Delta X   Delta X   Delta X     New X
                                 (Linear)    (Quad)   (Total)
    R1        3.10319   0.00322   0.00000   0.00716   0.00716   3.11035
    R2        3.11029   0.00136   0.00000   0.00305   0.00305   3.11335
    R3        3.07737   0.00278   0.00000   0.00587   0.00587   3.08325
    R4        3.19520  -0.01109   0.00000  -0.02901  -0.02901   3.16619
    R5        1.81970   0.00013   0.00000   0.00022   0.00022   1.81993
    R6        1.82168  -0.00045   0.00000  -0.00081  -0.00081   1.82087
    R7        3.87519  -0.02558   0.00000  -0.15018  -0.15018   3.72501
    R8        3.72021  -0.00072   0.00000  -0.00345  -0.00345   3.71677
    R9        3.74644  -0.00698   0.00000  -0.03464  -0.03464   3.71180
   R10        3.69439  -0.00433   0.00000  -0.02002  -0.02002   3.67436
   R11        1.82483  -0.00326   0.00000  -0.00588  -0.00588   1.81895
   R12        1.81880   0.00103   0.00000   0.00183   0.00183   1.82063
   R13        1.82118  -0.00005   0.00000  -0.00009  -0.00009   1.82109
   R14        1.81526   0.00021   0.00000   0.00037   0.00037   1.81563
    A1        1.87881   0.00273   0.00000  -0.01401  -0.01582   1.86299
    A2        2.06640  -0.00516   0.00000  -0.03085  -0.03333   2.03306
    A3        1.84268  -0.00238   0.00000   0.00410   0.00422   1.84690
    A4        1.96857  -0.00830   0.00000  -0.04720  -0.04883   1.91975
    A5        1.98615  -0.00413   0.00000  -0.01120  -0.01058   1.97557
    A6        1.71611   0.01814   0.00000   0.11129   0.11174   1.82784
    A7        2.02313   0.00015   0.00000   0.00086   0.00086   2.02398
    A8        1.99882   0.00015   0.00000   0.00089   0.00089   1.99970
    A9        2.58472  -0.01065   0.00000   0.00000   0.00000   2.58472
   A10        1.97349  -0.00140   0.00000  -0.02085  -0.02262   1.95087
   A11        1.98529  -0.00213   0.00000  -0.02468  -0.02636   1.95894
   A12        1.83278   0.00328   0.00000   0.03680   0.03700   1.86978
   A13        1.99358  -0.00343   0.00000  -0.03361  -0.03504   1.95854
   A14        1.82399   0.00263   0.00000   0.03061   0.03096   1.85496
   A15        1.83238   0.00268   0.00000   0.03025   0.03067   1.86305
   A16        2.03567  -0.00445   0.00000  -0.02586  -0.02586   2.00980
   A17        2.30994   0.00458   0.00000   0.02663   0.02663   2.33657
   A18        2.22354   0.00314   0.00000   0.01824   0.01824   2.24178
   A19        2.47858  -0.00216   0.00000  -0.01255  -0.01255   2.46603
    D1       -0.55056   0.00295   0.00000   0.02933   0.02898  -0.52158
    D2        1.70706  -0.01065   0.00000  -0.07762  -0.07692   1.63014
    D3       -2.67792   0.00767   0.00000   0.04761   0.04726  -2.63065
    D4        2.64795  -0.00237   0.00000  -0.02196  -0.02143   2.62652
    D5        0.33621   0.00906   0.00000   0.07046   0.06970   0.40592
    D6       -1.59959  -0.00591   0.00000  -0.03250  -0.03227  -1.63186
    D7        1.67562   0.00559   0.00000   0.05907   0.05781   1.73343
    D8       -2.39207  -0.00345   0.00000  -0.03712  -0.03563  -2.42769
    D9       -0.29324  -0.00132   0.00000  -0.00606  -0.00630  -0.29955
   D10       -0.01284   0.00123   0.00000   0.02935   0.02820   0.01536
   D11       -2.06943   0.00169   0.00000   0.04997   0.05047  -2.01896
   D12        2.12810   0.00244   0.00000   0.04427   0.04493   2.17303
   D13        1.44230  -0.00438   0.00000  -0.05397  -0.05346   1.38884
   D14       -0.86900   0.00412   0.00000   0.04005   0.03951  -0.82949
   D15       -2.86280  -0.00003   0.00000  -0.00625  -0.00621  -2.86901
   D16       -1.54004   0.00390   0.00000   0.02520   0.02455  -1.51549
   D17        0.76720  -0.00400   0.00000  -0.06489  -0.06414   0.70306
   D18        2.75973  -0.00084   0.00000  -0.02628  -0.02637   2.73336
   D19       -2.04160  -0.00388   0.00000  -0.03530  -0.03454  -2.07614
   D20        1.94001   0.00373   0.00000   0.05362   0.05281   1.99282
   D21       -0.04755   0.00062   0.00000   0.01490   0.01496  -0.03259
   D22       -2.04482  -0.00024   0.00000  -0.00112  -0.00112  -2.04594
   D23        0.03633   0.00084   0.00000   0.00564   0.00574   0.04207
   D24        2.14000  -0.00060   0.00000  -0.00436  -0.00445   2.13555
         Item               Value     Threshold  Converged?
 Maximum Force            0.025581     0.000450     NO 
 RMS     Force            0.005806     0.000300     NO 
 Maximum Displacement     0.238304     0.001800     NO 
 RMS     Displacement     0.080053     0.001200     NO 
 Predicted change in Energy=-6.394551D-03
 GradGradGradGradGradGradGradGradGradGradGradGradGradGradGradGradGradGrad

                          Input orientation:                          
 ---------------------------------------------------------------------
 Center     Atomic      Atomic             Coordinates (Angstroms)
 Number     Number       Type             X           Y           Z
 ---------------------------------------------------------------------
      1         14           0       -1.825753   -0.021190   -0.090439
      2          8           0       -2.709427    1.335354   -0.387054
      3          8           0       -2.878291   -1.288381   -0.116705
      4          8           0       -0.577538   -0.311749   -1.100193
      5         40           0        1.362283   -0.210097   -1.435392
      6          1           0       -3.489523    1.218009   -0.939479
      7          1           0       -2.491803   -2.124536   -0.399413
      8          8           0       -1.115059    0.215286    1.408298
      9          1           0       -1.333555    1.048520    1.837804
     10          8           0        2.335745   -1.661492   -0.533041
     11          1           0        2.709187   -1.767725    0.348696
     12          8           0        2.099485    1.558745   -1.004328
     13          1           0        2.539424    2.183768   -1.591247
     14          8           0        1.628759   -0.478442   -3.342649
     15          1           0        2.044337   -1.082021   -3.964018
 ---------------------------------------------------------------------
                    Distance matrix (angstroms):
                    1          2          3          4          5
     1  Si   0.000000
     2  O    1.645925   0.000000
     3  O    1.647513   2.643026   0.000000
     4  O    1.631584   2.786837   2.685986   0.000000
     5  Zr   3.465279   4.479536   4.569912   1.971192   0.000000
     6  H    2.241565   0.963065   2.707869   3.293273   5.081874
     7  H    2.227813   3.466749   0.963562   2.727947   4.426319
     8  O    1.675476   2.649500   2.774101   2.619012   3.795359
     9  H    2.259349   2.631594   3.415760   3.324713   4.423287
    10  O    4.494948   5.869936   5.243922   3.260474   1.966828
    11  H    4.879437   6.287432   5.627280   3.875785   2.724578
    12  O    4.328843   4.853510   5.802780   3.267169   1.964201
    13  H    5.115567   5.451634   6.601645   4.022957   2.672179
    14  O    4.766509   5.553850   5.601448   3.150261   1.944389
    15  H    5.577417   6.421576   6.251133   3.958414   2.760326
                    6          7          8          9         10
     6  H    0.000000
     7  H    3.529834   0.000000
     8  O    3.486487   3.261596   0.000000
     9  H    3.519976   4.051538   0.962545   0.000000
    10  O    6.510797   4.851544   4.381683   5.140898   0.000000
    11  H    6.999858   5.266618   4.436209   5.147081   0.963434
    12  O    5.599761   5.917128   4.237799   4.485957   3.263105
    13  H    6.140496   6.730169   5.121272   5.295955   3.993408
    14  O    5.903388   5.324593   5.530036   6.159871   3.129431
    15  H    6.712793   5.862577   6.366049   7.043472   3.491749
                   11         12         13         14         15
    11  H    0.000000
    12  O    3.642501   0.000000
    13  H    4.405280   0.963677   0.000000
    14  O    4.056551   3.136791   3.314224   0.000000
    15  H    4.417207   3.966920   4.067005   0.960787   0.000000
 Stoichiometry    H6O7SiZr
 Framework group  C1[X(H6O7SiZr)]
 Deg. of freedom    39
 Full point group                 C1      NOp   1
 Largest Abelian subgroup         C1      NOp   1
 Largest concise Abelian subgroup C1      NOp   1
                         Standard orientation:                         
 ---------------------------------------------------------------------
 Center     Atomic      Atomic             Coordinates (Angstroms)
 Number     Number       Type             X           Y           Z
 ---------------------------------------------------------------------
      1         14           0       -2.149603   -0.047284   -0.038673
      2          8           0       -2.930160    1.093449   -0.932279
      3          8           0       -3.021538   -1.438144   -0.178441
      4          8           0       -0.588019   -0.327156   -0.419717
      5         40           0        1.315383   -0.006317   -0.020070
      6          1           0       -3.419145    0.769050   -1.695923
      7          1           0       -2.501454   -2.246092   -0.106432
      8          8           0       -2.105808    0.549572    1.526276
      9          1           0       -2.529757    1.404827    1.649970
     10          8           0        1.945059   -1.119825    1.473926
     11          1           0        1.945800   -1.014053    2.431535
     12          8           0        1.705896    1.898571    0.257396
     13          1           0        2.300376    2.467574   -0.244104
     14          8           0        2.330488   -0.564612   -1.581646
     15          1           0        2.995940   -1.201480   -1.854932
 ---------------------------------------------------------------------
 Rotational constants (GHZ):           1.6654438           0.4925911           0.4866980
 Basis read from rwf:  (5D, 7F)
 Pseudo-potential data read from rwf file.
 There are   178 symmetry adapted cartesian basis functions of A   symmetry.
 There are   168 symmetry adapted basis functions of A   symmetry.
   168 basis functions,   339 primitive gaussians,   178 cartesian basis functions
    44 alpha electrons       44 beta electrons
       nuclear repulsion energy       635.2927003132 Hartrees.
 NAtoms=   15 NActive=   15 NUniq=   15 SFac= 1.00D+00 NAtFMM=   60 NAOKFM=F Big=F
 Integral buffers will be    131072 words long.
 Raffenetti 2 integral format.
 Two-electron integral symmetry is turned on.
 One-electron integrals computed using PRISM.
   1 Symmetry operations used in ECPInt.
 ECPInt:  NShTT=    1770 NPrTT=   10201 LenC2=    1635 LenP2D=    6478.
 LDataN:  DoStor=T MaxTD1= 5 Len=  102
 NBasis=   168 RedAO= T EigKep=  1.55D-02  NBF=   168
 NBsUse=   168 1.00D-06 EigRej= -1.00D+00 NBFU=   168
 Defaulting to unpruned grid for atomic number  40.
 Initial guess from the checkpoint file:  "/localscratch/sarashs.33453155.0/Gau-7545.chk"
 B after Tr=    -0.000000    0.000000    0.000000
         Rot=    0.998295    0.057413    0.009365   -0.004907 Ang=   6.69 deg.
 ExpMin= 2.43D-02 ExpMax= 1.61D+04 ExpMxC= 2.43D+03 IAcc=3 IRadAn=         5 AccDes= 0.00D+00
 Harris functional with IExCor=  402 and IRadAn=       5 diagonalized for initial guess.
 HarFok:  IExCor=  402 AccDes= 0.00D+00 IRadAn=         5 IDoV= 1 UseB2=F ITyADJ=14
 ICtDFT=  3500011 ScaDFX=  1.000000  1.000000  1.000000  1.000000
 Defaulting to unpruned grid for atomic number  40.
 FoFCou: FMM=F IPFlag=           0 FMFlag=      100000 FMFlg1=           0
         NFxFlg=           0 DoJE=T BraDBF=F KetDBF=T FulRan=T
         wScrn=  0.000000 ICntrl=       500 IOpCl=  0 I1Cent=   200000004 NGrid=           0
         NMat0=    1 NMatS0=      1 NMatT0=    0 NMatD0=    1 NMtDS0=    0 NMtDT0=    0
 Petite list used in FoFCou.
 Requested convergence on RMS density matrix=1.00D-08 within 128 cycles.
 Requested convergence on MAX density matrix=1.00D-06.
 Requested convergence on             energy=1.00D-06.
 No special actions if energy rises.
 Defaulting to unpruned grid for atomic number  40.
 Defaulting to unpruned grid for atomic number  40.
 Defaulting to unpruned grid for atomic number  40.
 Defaulting to unpruned grid for atomic number  40.
 Defaulting to unpruned grid for atomic number  40.
 Defaulting to unpruned grid for atomic number  40.
 Defaulting to unpruned grid for atomic number  40.
 Defaulting to unpruned grid for atomic number  40.
 Defaulting to unpruned grid for atomic number  40.
 Defaulting to unpruned grid for atomic number  40.
 Defaulting to unpruned grid for atomic number  40.
 Defaulting to unpruned grid for atomic number  40.
 Defaulting to unpruned grid for atomic number  40.
 Defaulting to unpruned grid for atomic number  40.
 Defaulting to unpruned grid for atomic number  40.
 Defaulting to unpruned grid for atomic number  40.
 SCF Done:  E(RB3LYP) =  -866.683882175     A.U. after   11 cycles
            NFock= 11  Conv=0.97D-08     -V/T= 2.0444
   1 Symmetry operations used in ECPInt.
 ECPInt:  NShTT=    1770 NPrTT=   10201 LenC2=    1635 LenP2D=    6478.
 LDataN:  DoStor=T MaxTD1= 6 Len=  172
 Calling FoFJK, ICntrl=      2127 FMM=F ISym2X=0 I1Cent= 0 IOpClX= 0 NMat=1 NMatS=1 NMatT=0.
 Defaulting to unpruned grid for atomic number  40.
 Defaulting to unpruned grid for atomic number  40.
 Defaulting to unpruned grid for atomic number  40.
 Defaulting to unpruned grid for atomic number  40.
 Defaulting to unpruned grid for atomic number  40.
 Defaulting to unpruned grid for atomic number  40.
 Defaulting to unpruned grid for atomic number  40.
 Defaulting to unpruned grid for atomic number  40.
 Defaulting to unpruned grid for atomic number  40.
 Defaulting to unpruned grid for atomic number  40.
 Defaulting to unpruned grid for atomic number  40.
 Defaulting to unpruned grid for atomic number  40.
 Defaulting to unpruned grid for atomic number  40.
 Defaulting to unpruned grid for atomic number  40.
 Defaulting to unpruned grid for atomic number  40.
 Defaulting to unpruned grid for atomic number  40.
 ***** Axes restored to original set *****
 -------------------------------------------------------------------
 Center     Atomic                   Forces (Hartrees/Bohr)
 Number     Number              X              Y              Z
 -------------------------------------------------------------------
      1       14           0.005433805    0.004322448    0.018792368
      2        8           0.000437305    0.002167955   -0.002096077
      3        8          -0.000145570   -0.002511612   -0.001382735
      4        8          -0.008545427   -0.001261091   -0.003399159
      5       40           0.007293682   -0.002891064   -0.004112268
      6        1           0.000562078   -0.000571864    0.000003171
      7        1          -0.000314214    0.000023991    0.000298729
      8        8          -0.003362250   -0.001900461   -0.009248829
      9        1          -0.002161275   -0.000232463   -0.000061244
     10        8          -0.001049900    0.001819663    0.005374487
     11        1           0.000829365   -0.001366074   -0.001330818
     12        8           0.000556060    0.001634635    0.000898810
     13        1          -0.000006599    0.001293438    0.001702237
     14        8           0.000252313   -0.000308818   -0.005730295
     15        1           0.000220628   -0.000218683    0.000291624
 -------------------------------------------------------------------
 Cartesian Forces:  Max     0.018792368 RMS     0.004133072

 GradGradGradGradGradGradGradGradGradGradGradGradGradGradGradGradGradGrad
 Berny optimization.
 Using GEDIIS/GDIIS optimizer.
 FormGI is forming the generalized inverse of G from B-inverse, IUseBI=4.
 Internal  Forces:  Max     0.010971682 RMS     0.002760257
 Search for a local minimum.
 Step number   2 out of a maximum of   67
 All quantities printed in internal units (Hartrees-Bohrs-Radians)
 Mixed Optimization -- RFO/linear search
 Update second derivatives using D2CorX and points    1    2
 DE= -6.81D-03 DEPred=-6.39D-03 R= 1.07D+00
 TightC=F SS=  1.41D+00  RLast= 2.98D-01 DXNew= 5.0454D-01 8.9279D-01
 Trust test= 1.07D+00 RLast= 2.98D-01 DXMaxT set to 5.05D-01
 ITU=  1  0
 Use linear search instead of GDIIS.
     Eigenvalues ---    0.00230   0.00230   0.00230   0.00230   0.03081
     Eigenvalues ---    0.03731   0.03782   0.03962   0.06542   0.10608
     Eigenvalues ---    0.10905   0.11062   0.12303   0.12886   0.15493
     Eigenvalues ---    0.15999   0.16000   0.16000   0.16000   0.16000
     Eigenvalues ---    0.18314   0.19409   0.19683   0.19890   0.19978
     Eigenvalues ---    0.20052   0.20591   0.24835   0.36799   0.43293
     Eigenvalues ---    0.43832   0.46101   0.54318   0.54623   0.54680
     Eigenvalues ---    0.54847   0.54978   0.553461000.000001000.00000
     Eigenvalues --- 1000.000001000.000001000.000001000.000001000.00000
     Eigenvalues --- 1000.000001000.000001000.000001000.000001000.00000
     Eigenvalues --- 1000.000001000.000001000.000001000.000001000.00000
     Eigenvalues --- 1000.000001000.00000
 RFO step:  Lambda=-2.83555816D-03 EMin= 2.29901967D-03
 Quartic linear search produced a step of  0.12904.
 Iteration  1 RMS(Cart)=  0.04514651 RMS(Int)=  0.00106284
 Iteration  2 RMS(Cart)=  0.00165956 RMS(Int)=  0.00054855
 Iteration  3 RMS(Cart)=  0.00000122 RMS(Int)=  0.00054855
 Iteration  4 RMS(Cart)=  0.00000000 RMS(Int)=  0.00054855
 Iteration  1 RMS(Cart)=  0.00000000 RMS(Int)=  0.00000000
 Variable       Old X    -DE/DX   Delta X   Delta X   Delta X     New X
                                 (Linear)    (Quad)   (Total)
    R1        3.11035   0.00116   0.00092   0.00369   0.00461   3.11496
    R2        3.11335   0.00222   0.00039   0.00603   0.00642   3.11977
    R3        3.08325   0.00379   0.00076   0.00976   0.01052   3.09376
    R4        3.16619  -0.01097  -0.00374  -0.03592  -0.03966   3.12653
    R5        1.81993  -0.00039   0.00003  -0.00076  -0.00073   1.81920
    R6        1.82087  -0.00023  -0.00010  -0.00057  -0.00067   1.82020
    R7        3.72501   0.00846  -0.01938   0.04434   0.02496   3.74998
    R8        3.71677   0.00141  -0.00044   0.00756   0.00711   3.72388
    R9        3.71180   0.00341  -0.00447   0.01643   0.01196   3.72376
   R10        3.67436   0.00547  -0.00258   0.02752   0.02493   3.69930
   R11        1.81895   0.00026  -0.00076  -0.00010  -0.00086   1.81809
   R12        1.82063  -0.00075   0.00024  -0.00131  -0.00108   1.81955
   R13        1.82109  -0.00020  -0.00001  -0.00042  -0.00043   1.82066
   R14        1.81563   0.00004   0.00005   0.00013   0.00018   1.81580
    A1        1.86299   0.00222  -0.00204   0.00612   0.00326   1.86625
    A2        2.03306  -0.00324  -0.00430  -0.02562  -0.03074   2.00233
    A3        1.84690   0.00011   0.00055   0.00658   0.00735   1.85425
    A4        1.91975  -0.00237  -0.00630  -0.02191  -0.02885   1.89090
    A5        1.97557  -0.00086  -0.00136  -0.00112  -0.00223   1.97334
    A6        1.82784   0.00409   0.01442   0.03681   0.05152   1.87936
    A7        2.02398  -0.00122   0.00011  -0.00830  -0.00819   2.01579
    A8        1.99970   0.00055   0.00011   0.00386   0.00398   2.00368
    A9        2.58472  -0.00408   0.00000   0.00000  -0.00000   2.58472
   A10        1.95087  -0.00136  -0.00292  -0.02182  -0.02656   1.92431
   A11        1.95894  -0.00232  -0.00340  -0.02898  -0.03402   1.92491
   A12        1.86978   0.00172   0.00477   0.02587   0.03100   1.90078
   A13        1.95854  -0.00165  -0.00452  -0.02403  -0.03028   1.92826
   A14        1.85496   0.00209   0.00400   0.02971   0.03401   1.88896
   A15        1.86305   0.00217   0.00396   0.02836   0.03274   1.89580
   A16        2.00980  -0.00224  -0.00334  -0.01784  -0.02118   1.98862
   A17        2.33657   0.00335   0.00344   0.02549   0.02893   2.36550
   A18        2.24178   0.00386   0.00235   0.02822   0.03057   2.27235
   A19        2.46603  -0.00076  -0.00162  -0.00638  -0.00800   2.45803
    D1       -0.52158   0.00114   0.00374   0.01251   0.01613  -0.50545
    D2        1.63014  -0.00243  -0.00993  -0.02897  -0.03858   1.59156
    D3       -2.63065   0.00095   0.00610   0.00727   0.01318  -2.61747
    D4        2.62652  -0.00159  -0.00277  -0.01442  -0.01707   2.60945
    D5        0.40592   0.00248   0.00899   0.02772   0.03653   0.44245
    D6       -1.63186  -0.00055  -0.00416  -0.00321  -0.00730  -1.63916
    D7        1.73343   0.00088   0.00746   0.01716   0.02380   1.75723
    D8       -2.42769  -0.00045  -0.00460  -0.01116  -0.01496  -2.44265
    D9       -0.29955  -0.00032  -0.00081  -0.00244  -0.00324  -0.30279
   D10        0.01536   0.00226   0.00364   0.03891   0.04207   0.05743
   D11       -2.01896  -0.00003   0.00651   0.02801   0.03473  -1.98424
   D12        2.17303   0.00068   0.00580   0.03159   0.03766   2.21069
   D13        1.38884  -0.00277  -0.00690  -0.05552  -0.06166   1.32718
   D14       -0.82949   0.00245   0.00510   0.01820   0.02248  -0.80701
   D15       -2.86901   0.00004  -0.00080  -0.01610  -0.01684  -2.88585
   D16       -1.51549   0.00245   0.00317  -0.01136  -0.00891  -1.52440
   D17        0.70306  -0.00313  -0.00828  -0.08772  -0.09524   0.60782
   D18        2.73336  -0.00014  -0.00340  -0.04849  -0.05193   2.68142
   D19       -2.07614  -0.00232  -0.00446  -0.02137  -0.02492  -2.10106
   D20        1.99282   0.00276   0.00681   0.05152   0.05744   2.05026
   D21       -0.03259  -0.00018   0.00193   0.01150   0.01341  -0.01918
   D22       -2.04594  -0.00038  -0.00014  -0.00943  -0.00960  -2.05554
   D23        0.04207   0.00001   0.00074  -0.00615  -0.00542   0.03665
   D24        2.13555   0.00028  -0.00057  -0.00430  -0.00484   2.13071
         Item               Value     Threshold  Converged?
 Maximum Force            0.010972     0.000450     NO 
 RMS     Force            0.002731     0.000300     NO 
 Maximum Displacement     0.131285     0.001800     NO 
 RMS     Displacement     0.045439     0.001200     NO 
 Predicted change in Energy=-1.573540D-03
 GradGradGradGradGradGradGradGradGradGradGradGradGradGradGradGradGradGrad

                          Input orientation:                          
 ---------------------------------------------------------------------
 Center     Atomic      Atomic             Coordinates (Angstroms)
 Number     Number       Type             X           Y           Z
 ---------------------------------------------------------------------
      1         14           0       -1.805176   -0.011924   -0.055636
      2          8           0       -2.675167    1.350251   -0.379219
      3          8           0       -2.859541   -1.280938   -0.114188
      4          8           0       -0.582950   -0.308881   -1.103605
      5         40           0        1.361435   -0.225436   -1.491232
      6          1           0       -3.444300    1.226141   -0.944709
      7          1           0       -2.471893   -2.115548   -0.398658
      8          8           0       -1.139626    0.209179    1.442861
      9          1           0       -1.403028    1.030160    1.869748
     10          8           0        2.313459   -1.647675   -0.514440
     11          1           0        2.704616   -1.736768    0.360869
     12          8           0        2.079661    1.544133   -1.005671
     13          1           0        2.519221    2.207261   -1.549069
     14          8           0        1.638743   -0.508000   -3.408363
     15          1           0        2.062815   -1.117903   -4.017849
 ---------------------------------------------------------------------
                    Distance matrix (angstroms):
                    1          2          3          4          5
     1  Si   0.000000
     2  O    1.648366   0.000000
     3  O    1.650912   2.650922   0.000000
     4  O    1.637150   2.766736   2.665840   0.000000
     5  Zr   3.483382   4.473648   4.563658   1.984402   0.000000
     6  H    2.238300   0.962678   2.705023   3.250979   5.049837
     7  H    2.233251   3.471809   0.963208   2.707231   4.411422
     8  O    1.654489   2.641951   2.757346   2.657586   3.879832
     9  H    2.225930   2.603583   3.376181   3.362497   4.529344
    10  O    4.455259   5.821704   5.201406   3.244791   1.970592
    11  H    4.846316   6.246557   5.602972   3.871903   2.741995
    12  O    4.291367   4.799836   5.759468   3.245420   1.970531
    13  H    5.084834   5.393022   6.569436   4.019064   2.694778
    14  O    4.831919   5.589153   5.628817   3.207409   1.957583
    15  H    5.646563   6.463736   6.284484   4.018383   2.769878
                    6          7          8          9         10
     6  H    0.000000
     7  H    3.522873   0.000000
     8  O    3.470767   3.251228   0.000000
     9  H    3.482294   4.022886   0.962092   0.000000
    10  O    6.449476   4.809564   4.382092   5.164051   0.000000
    11  H    6.949282   5.245626   4.442478   5.177387   0.962864
    12  O    5.533442   5.871828   4.259251   4.545472   3.237839
    13  H    6.073832   6.702338   5.131388   5.334596   3.996664
    14  O    5.908820   5.342271   5.636315   6.283053   3.182592
    15  H    6.728079   5.887055   6.468085   7.161706   3.552092
                   11         12         13         14         15
    11  H    0.000000
    12  O    3.608643   0.000000
    13  H    4.386069   0.963449   0.000000
    14  O    4.105249   3.190390   3.406590   0.000000
    15  H    4.468566   4.019942   4.166521   0.960881   0.000000
 Stoichiometry    H6O7SiZr
 Framework group  C1[X(H6O7SiZr)]
 Deg. of freedom    39
 Full point group                 C1      NOp   1
 Largest Abelian subgroup         C1      NOp   1
 Largest concise Abelian subgroup C1      NOp   1
                         Standard orientation:                         
 ---------------------------------------------------------------------
 Center     Atomic      Atomic             Coordinates (Angstroms)
 Number     Number       Type             X           Y           Z
 ---------------------------------------------------------------------
      1         14           0       -2.152235   -0.049423   -0.024164
      2          8           0       -2.903565    0.910221   -1.133983
      3          8           0       -2.994742   -1.468000    0.033551
      4          8           0       -0.587809   -0.392819   -0.363146
      5         40           0        1.330974   -0.014887   -0.026564
      6          1           0       -3.357994    0.445200   -1.843911
      7          1           0       -2.466087   -2.243381    0.250526
      8          8           0       -2.185602    0.782869    1.405350
      9          1           0       -2.659646    1.618808    1.359419
     10          8           0        1.890046   -0.801395    1.691597
     11          1           0        1.888154   -0.515704    2.611099
     12          8           0        1.656050    1.928633   -0.033451
     13          1           0        2.233311    2.460555   -0.592078
     14          8           0        2.397660   -0.832110   -1.450102
     15          1           0        3.078274   -1.497291   -1.582727
 ---------------------------------------------------------------------
 Rotational constants (GHZ):           1.6496756           0.4893233           0.4852770
 Basis read from rwf:  (5D, 7F)
 Pseudo-potential data read from rwf file.
 There are   178 symmetry adapted cartesian basis functions of A   symmetry.
 There are   168 symmetry adapted basis functions of A   symmetry.
   168 basis functions,   339 primitive gaussians,   178 cartesian basis functions
    44 alpha electrons       44 beta electrons
       nuclear repulsion energy       634.3536741000 Hartrees.
 NAtoms=   15 NActive=   15 NUniq=   15 SFac= 1.00D+00 NAtFMM=   60 NAOKFM=F Big=F
 Integral buffers will be    131072 words long.
 Raffenetti 2 integral format.
 Two-electron integral symmetry is turned on.
 One-electron integrals computed using PRISM.
   1 Symmetry operations used in ECPInt.
 ECPInt:  NShTT=    1770 NPrTT=   10201 LenC2=    1635 LenP2D=    6479.
 LDataN:  DoStor=T MaxTD1= 5 Len=  102
 NBasis=   168 RedAO= T EigKep=  1.57D-02  NBF=   168
 NBsUse=   168 1.00D-06 EigRej= -1.00D+00 NBFU=   168
 Defaulting to unpruned grid for atomic number  40.
 Initial guess from the checkpoint file:  "/localscratch/sarashs.33453155.0/Gau-7545.chk"
 B after Tr=    -0.000000   -0.000000   -0.000000
         Rot=    0.996241    0.086339    0.006195   -0.003180 Ang=   9.94 deg.
 ExpMin= 2.43D-02 ExpMax= 1.61D+04 ExpMxC= 2.43D+03 IAcc=3 IRadAn=         5 AccDes= 0.00D+00
 Harris functional with IExCor=  402 and IRadAn=       5 diagonalized for initial guess.
 HarFok:  IExCor=  402 AccDes= 0.00D+00 IRadAn=         5 IDoV= 1 UseB2=F ITyADJ=14
 ICtDFT=  3500011 ScaDFX=  1.000000  1.000000  1.000000  1.000000
 Defaulting to unpruned grid for atomic number  40.
 FoFCou: FMM=F IPFlag=           0 FMFlag=      100000 FMFlg1=           0
         NFxFlg=           0 DoJE=T BraDBF=F KetDBF=T FulRan=T
         wScrn=  0.000000 ICntrl=       500 IOpCl=  0 I1Cent=   200000004 NGrid=           0
         NMat0=    1 NMatS0=      1 NMatT0=    0 NMatD0=    1 NMtDS0=    0 NMtDT0=    0
 Petite list used in FoFCou.
 Requested convergence on RMS density matrix=1.00D-08 within 128 cycles.
 Requested convergence on MAX density matrix=1.00D-06.
 Requested convergence on             energy=1.00D-06.
 No special actions if energy rises.
 Defaulting to unpruned grid for atomic number  40.
 Defaulting to unpruned grid for atomic number  40.
 Defaulting to unpruned grid for atomic number  40.
 Defaulting to unpruned grid for atomic number  40.
 Defaulting to unpruned grid for atomic number  40.
 Defaulting to unpruned grid for atomic number  40.
 Defaulting to unpruned grid for atomic number  40.
 Defaulting to unpruned grid for atomic number  40.
 Defaulting to unpruned grid for atomic number  40.
 Defaulting to unpruned grid for atomic number  40.
 Defaulting to unpruned grid for atomic number  40.
 Defaulting to unpruned grid for atomic number  40.
 Defaulting to unpruned grid for atomic number  40.
 Defaulting to unpruned grid for atomic number  40.
 Defaulting to unpruned grid for atomic number  40.
 Defaulting to unpruned grid for atomic number  40.
 SCF Done:  E(RB3LYP) =  -866.685717369     A.U. after   11 cycles
            NFock= 11  Conv=0.64D-08     -V/T= 2.0445
   1 Symmetry operations used in ECPInt.
 ECPInt:  NShTT=    1770 NPrTT=   10201 LenC2=    1635 LenP2D=    6479.
 LDataN:  DoStor=T MaxTD1= 6 Len=  172
 Calling FoFJK, ICntrl=      2127 FMM=F ISym2X=0 I1Cent= 0 IOpClX= 0 NMat=1 NMatS=1 NMatT=0.
 Defaulting to unpruned grid for atomic number  40.
 Defaulting to unpruned grid for atomic number  40.
 Defaulting to unpruned grid for atomic number  40.
 Defaulting to unpruned grid for atomic number  40.
 Defaulting to unpruned grid for atomic number  40.
 Defaulting to unpruned grid for atomic number  40.
 Defaulting to unpruned grid for atomic number  40.
 Defaulting to unpruned grid for atomic number  40.
 Defaulting to unpruned grid for atomic number  40.
 Defaulting to unpruned grid for atomic number  40.
 Defaulting to unpruned grid for atomic number  40.
 Defaulting to unpruned grid for atomic number  40.
 Defaulting to unpruned grid for atomic number  40.
 Defaulting to unpruned grid for atomic number  40.
 Defaulting to unpruned grid for atomic number  40.
 Defaulting to unpruned grid for atomic number  40.
 ***** Axes restored to original set *****
 -------------------------------------------------------------------
 Center     Atomic                   Forces (Hartrees/Bohr)
 Number     Number              X              Y              Z
 -------------------------------------------------------------------
      1       14          -0.000802570   -0.000690078    0.002128281
      2        8           0.000471773    0.001685795    0.000162084
      3        8          -0.000854968   -0.001098262    0.000300480
      4        8          -0.000192537   -0.000022572   -0.000735659
      5       40           0.004129716   -0.001798322   -0.000378315
      6        1           0.000256169   -0.000532249   -0.000282441
      7        1           0.000041015    0.000345283    0.000011548
      8        8           0.001290396   -0.000098253   -0.002526215
      9        1          -0.001091042    0.000409576    0.001227834
     10        8          -0.002399949    0.003641079    0.000749607
     11        1           0.000391172   -0.000641776   -0.000939444
     12        8          -0.000737019   -0.002323371   -0.001460111
     13        1          -0.000044018    0.000938913    0.001416817
     14        8          -0.000654463    0.000384750    0.000159298
     15        1           0.000196326   -0.000200512    0.000166235
 -------------------------------------------------------------------
 Cartesian Forces:  Max     0.004129716 RMS     0.001299138

 GradGradGradGradGradGradGradGradGradGradGradGradGradGradGradGradGradGrad
 Berny optimization.
 Using GEDIIS/GDIIS optimizer.
 FormGI is forming the generalized inverse of G from B-inverse, IUseBI=4.
 Internal  Forces:  Max     0.003229288 RMS     0.000975865
 Search for a local minimum.
 Step number   3 out of a maximum of   67
 All quantities printed in internal units (Hartrees-Bohrs-Radians)
 Mixed Optimization -- En-DIIS/RFO-DIIS
 Update second derivatives using D2CorX and points    1    2    3
 DE= -1.84D-03 DEPred=-1.57D-03 R= 1.17D+00
 TightC=F SS=  1.41D+00  RLast= 2.13D-01 DXNew= 8.4853D-01 6.3995D-01
 Trust test= 1.17D+00 RLast= 2.13D-01 DXMaxT set to 6.40D-01
 ITU=  1  1  0
 Use linear search instead of GDIIS.
     Eigenvalues ---    0.00229   0.00230   0.00230   0.00230   0.02820
     Eigenvalues ---    0.03733   0.03776   0.03964   0.05554   0.10343
     Eigenvalues ---    0.10464   0.11904   0.12061   0.12837   0.15163
     Eigenvalues ---    0.15999   0.16000   0.16000   0.16000   0.16207
     Eigenvalues ---    0.18471   0.19404   0.19770   0.20002   0.20077
     Eigenvalues ---    0.20369   0.22073   0.24919   0.36925   0.43221
     Eigenvalues ---    0.43822   0.45966   0.54410   0.54624   0.54680
     Eigenvalues ---    0.54849   0.54980   0.553461000.000001000.00000
     Eigenvalues --- 1000.000001000.000001000.000001000.000001000.00000
     Eigenvalues --- 1000.000001000.000001000.000001000.000001000.00000
     Eigenvalues --- 1000.000001000.000001000.000001000.000001000.00000
     Eigenvalues --- 1000.000001000.00000
 RFO step:  Lambda=-4.21143823D-04 EMin= 2.29035556D-03
 Quartic linear search produced a step of  0.23951.
 Iteration  1 RMS(Cart)=  0.03055661 RMS(Int)=  0.00059000
 Iteration  2 RMS(Cart)=  0.00071075 RMS(Int)=  0.00022250
 Iteration  3 RMS(Cart)=  0.00000064 RMS(Int)=  0.00022250
 Iteration  1 RMS(Cart)=  0.00000000 RMS(Int)=  0.00000000
 Variable       Old X    -DE/DX   Delta X   Delta X   Delta X     New X
                                 (Linear)    (Quad)   (Total)
    R1        3.11496   0.00059   0.00110   0.00172   0.00283   3.11779
    R2        3.11977   0.00109   0.00154   0.00272   0.00425   3.12402
    R3        3.09376   0.00117   0.00252   0.00257   0.00509   3.09885
    R4        3.12653  -0.00105  -0.00950  -0.00178  -0.01128   3.11526
    R5        1.81920   0.00003  -0.00018   0.00015  -0.00003   1.81917
    R6        1.82020  -0.00029  -0.00016  -0.00064  -0.00080   1.81940
    R7        3.74998   0.00092   0.00598  -0.00507   0.00091   3.75089
    R8        3.72388  -0.00323   0.00170  -0.02115  -0.01945   3.70443
    R9        3.72376  -0.00154   0.00286  -0.01344  -0.01058   3.71318
   R10        3.69930  -0.00041   0.00597  -0.00618  -0.00020   3.69909
   R11        1.81809   0.00119  -0.00021   0.00240   0.00219   1.82028
   R12        1.81955  -0.00064  -0.00026  -0.00121  -0.00146   1.81809
   R13        1.82066  -0.00017  -0.00010  -0.00036  -0.00046   1.82019
   R14        1.81580   0.00011   0.00004   0.00025   0.00029   1.81609
    A1        1.86625   0.00062   0.00078   0.00489   0.00551   1.87176
    A2        2.00233  -0.00067  -0.00736  -0.00501  -0.01249   1.98984
    A3        1.85425   0.00001   0.00176  -0.00164   0.00018   1.85443
    A4        1.89090   0.00057  -0.00691   0.00406  -0.00297   1.88793
    A5        1.97334   0.00007  -0.00053   0.00132   0.00082   1.97416
    A6        1.87936  -0.00061   0.01234  -0.00373   0.00867   1.88803
    A7        2.01579  -0.00107  -0.00196  -0.00742  -0.00939   2.00641
    A8        2.00368  -0.00034   0.00095  -0.00298  -0.00203   2.00165
    A9        2.58472  -0.00246  -0.00000   0.00000   0.00000   2.58472
   A10        1.92431  -0.00049  -0.00636  -0.00737  -0.01452   1.90979
   A11        1.92491  -0.00092  -0.00815  -0.01050  -0.01934   1.90557
   A12        1.90078   0.00026   0.00742   0.00496   0.01257   1.91336
   A13        1.92826  -0.00078  -0.00725  -0.00811  -0.01616   1.91209
   A14        1.88896   0.00099   0.00815   0.01131   0.01958   1.90854
   A15        1.89580   0.00103   0.00784   0.01062   0.01864   1.91444
   A16        1.98862   0.00049  -0.00507   0.00409  -0.00098   1.98765
   A17        2.36550   0.00166   0.00693   0.01177   0.01869   2.38419
   A18        2.27235   0.00307   0.00732   0.02190   0.02922   2.30157
   A19        2.45803  -0.00055  -0.00192  -0.00426  -0.00618   2.45186
    D1       -0.50545  -0.00026   0.00386  -0.00541  -0.00155  -0.50700
    D2        1.59156   0.00047  -0.00924   0.00008  -0.00912   1.58244
    D3       -2.61747  -0.00067   0.00316  -0.00863  -0.00551  -2.62298
    D4        2.60945  -0.00021  -0.00409  -0.00205  -0.00614   2.60331
    D5        0.44245  -0.00011   0.00875  -0.00136   0.00737   0.44983
    D6       -1.63916   0.00023  -0.00175  -0.00025  -0.00198  -1.64114
    D7        1.75723  -0.00056   0.00570  -0.00570  -0.00019   1.75704
    D8       -2.44265   0.00019  -0.00358   0.00022  -0.00320  -2.44585
    D9       -0.30279   0.00025  -0.00078   0.00198   0.00123  -0.30156
   D10        0.05743   0.00129   0.01008   0.02760   0.03759   0.09502
   D11       -1.98424   0.00050   0.00832   0.02197   0.03033  -1.95391
   D12        2.21069   0.00016   0.00902   0.01861   0.02767   2.23836
   D13        1.32718  -0.00106  -0.01477  -0.03137  -0.04578   1.28141
   D14       -0.80701   0.00086   0.00538  -0.00918  -0.00417  -0.81118
   D15       -2.88585   0.00001  -0.00403  -0.01892  -0.02294  -2.90879
   D16       -1.52440   0.00069  -0.00213  -0.05093  -0.05340  -1.57780
   D17        0.60782  -0.00133  -0.02281  -0.07458  -0.09704   0.51078
   D18        2.68142   0.00007  -0.01244  -0.05951  -0.07197   2.60945
   D19       -2.10106  -0.00066  -0.00597   0.01073   0.00519  -2.09586
   D20        2.05026   0.00111   0.01376   0.03255   0.04589   2.09615
   D21       -0.01918  -0.00027   0.00321   0.01706   0.02026   0.00108
   D22       -2.05554  -0.00019  -0.00230  -0.00932  -0.01164  -2.06718
   D23        0.03665  -0.00006  -0.00130  -0.00873  -0.01008   0.02657
   D24        2.13071   0.00017  -0.00116  -0.00582  -0.00691   2.12380
         Item               Value     Threshold  Converged?
 Maximum Force            0.003229     0.000450     NO 
 RMS     Force            0.000928     0.000300     NO 
 Maximum Displacement     0.084816     0.001800     NO 
 RMS     Displacement     0.030820     0.001200     NO 
 Predicted change in Energy=-2.947715D-04
 GradGradGradGradGradGradGradGradGradGradGradGradGradGradGradGradGradGrad

                          Input orientation:                          
 ---------------------------------------------------------------------
 Center     Atomic      Atomic             Coordinates (Angstroms)
 Number     Number       Type             X           Y           Z
 ---------------------------------------------------------------------
      1         14           0       -1.796687   -0.012814   -0.049680
      2          8           0       -2.647471    1.364864   -0.366252
      3          8           0       -2.862650   -1.274390   -0.121049
      4          8           0       -0.583863   -0.307300   -1.113360
      5         40           0        1.358188   -0.234270   -1.516924
      6          1           0       -3.413215    1.247141   -0.937654
      7          1           0       -2.480371   -2.107678   -0.415070
      8          8           0       -1.131871    0.188793    1.445312
      9          1           0       -1.410428    0.996392    1.890332
     10          8           0        2.289249   -1.623356   -0.494013
     11          1           0        2.712828   -1.691885    0.367091
     12          8           0        2.056162    1.532245   -1.013718
     13          1           0        2.486253    2.223887   -1.527935
     14          8           0        1.644049   -0.535911   -3.429777
     15          1           0        2.078097   -1.151668   -4.026464
 ---------------------------------------------------------------------
                    Distance matrix (angstroms):
                    1          2          3          4          5
     1  Si   0.000000
     2  O    1.649864   0.000000
     3  O    1.653162   2.659340   0.000000
     4  O    1.639841   2.759127   2.666985   0.000000
     5  Zr   3.486414   4.463920   4.565719   1.984883   0.000000
     6  H    2.233640   0.962664   2.707044   3.233016   5.029555
     7  H    2.233694   3.476903   0.962784   2.706605   4.411153
     8  O    1.648522   2.638552   2.754993   2.663310   3.892842
     9  H    2.220662   2.599658   3.363191   3.377127   4.559513
    10  O    4.414312   5.772088   5.177156   3.220306   1.960301
    11  H    4.829979   6.214042   5.612355   3.870010   2.740292
    12  O    4.261575   4.750936   5.733129   3.219253   1.964932
    13  H    5.052884   5.333156   6.544313   4.000549   2.704660
    14  O    4.851530   5.604933   5.639447   3.222056   1.957475
    15  H    5.667958   6.485451   6.299072   4.035488   2.767251
                    6          7          8          9         10
     6  H    0.000000
     7  H    3.521094   0.000000
     8  O    3.464558   3.248577   0.000000
     9  H    3.474412   4.011846   0.963252   0.000000
    10  O    6.399584   4.794797   4.330004   5.122089   0.000000
    11  H    6.918716   5.268204   4.413753   5.152508   0.962089
    12  O    5.477331   5.847012   4.244437   4.553887   3.206594
    13  H    6.008843   6.683433   5.106136   5.326858   3.988619
    14  O    5.913195   5.345068   5.656626   6.323080   3.196487
    15  H    6.741628   5.893704   6.483908   7.196697   3.570053
                   11         12         13         14         15
    11  H    0.000000
    12  O    3.568314   0.000000
    13  H    4.356114   0.963206   0.000000
    14  O    4.110325   3.206937   3.455835   0.000000
    15  H    4.471917   4.034911   4.219432   0.961036   0.000000
 Stoichiometry    H6O7SiZr
 Framework group  C1[X(H6O7SiZr)]
 Deg. of freedom    39
 Full point group                 C1      NOp   1
 Largest Abelian subgroup         C1      NOp   1
 Largest concise Abelian subgroup C1      NOp   1
                         Standard orientation:                         
 ---------------------------------------------------------------------
 Center     Atomic      Atomic             Coordinates (Angstroms)
 Number     Number       Type             X           Y           Z
 ---------------------------------------------------------------------
      1         14           0       -2.149677   -0.054598   -0.017509
      2          8           0       -2.884817    0.752076   -1.254803
      3          8           0       -2.990553   -1.457854    0.220703
      4          8           0       -0.583045   -0.440625   -0.310297
[...]
 ! R10   R(5,14)                 1.9615         -DE/DX =    0.0                 !
 ! R11   R(8,9)                  0.9633         -DE/DX =    0.0                 !
 ! R12   R(10,11)                0.9612         -DE/DX =    0.0                 !
 ! R13   R(12,13)                0.9602         -DE/DX =    0.0                 !
 ! R14   R(14,15)                0.9612         -DE/DX =    0.0                 !
 ! A1    A(2,1,3)              105.7756         -DE/DX =    0.0                 !
 ! A2    A(2,1,4)              115.0224         -DE/DX =    0.0                 !
 ! A3    A(2,1,8)              106.9717         -DE/DX =    0.0                 !
 ! A4    A(3,1,4)              109.235          -DE/DX =    0.0                 !
 ! A5    A(3,1,8)              114.2997         -DE/DX =    0.0                 !
 ! A6    A(4,1,8)              105.7676         -DE/DX =    0.0                 !
 ! A7    A(1,2,6)              114.3751         -DE/DX =    0.0                 !
 ! A8    A(1,3,7)              114.1615         -DE/DX =    0.0                 !
 ! A9    A(1,4,5)              148.0937         -DE/DX =   -0.0011              !
 ! A10   A(4,5,10)             110.0011         -DE/DX =    0.0                 !
 ! A11   A(4,5,12)             109.9468         -DE/DX =    0.0                 !
 ! A12   A(4,5,14)             107.679          -DE/DX =    0.0                 !
 ! A13   A(10,5,12)            109.4132         -DE/DX =    0.0                 !
 ! A14   A(10,5,14)            109.2731         -DE/DX =    0.0                 !
 ! A15   A(12,5,14)            110.5061         -DE/DX =    0.0                 !
 ! A16   A(1,8,9)              114.9515         -DE/DX =    0.0                 !
 ! A17   A(5,10,11)            139.8431         -DE/DX =    0.0                 !
 ! A18   A(5,12,13)            144.7073         -DE/DX =    0.0                 !
 ! A19   A(5,14,15)            138.84           -DE/DX =    0.0                 !
 ! D1    D(3,1,2,6)            -33.8087         -DE/DX =    0.0                 !
 ! D2    D(4,1,2,6)             86.8332         -DE/DX =    0.0                 !
 ! D3    D(8,1,2,6)           -156.0379         -DE/DX =    0.0                 !
 ! D4    D(2,1,3,7)            155.1052         -DE/DX =    0.0                 !
 ! D5    D(4,1,3,7)             30.7661         -DE/DX =    0.0                 !
 ! D6    D(8,1,3,7)            -87.484          -DE/DX =    0.0                 !
 ! D7    D(2,1,4,5)             95.7378         -DE/DX =    0.0                 !
 ! D8    D(3,1,4,5)           -145.5349         -DE/DX =    0.0                 !
 ! D9    D(8,1,4,5)            -22.0715         -DE/DX =    0.0                 !
 ! D10   D(2,1,8,9)             39.7293         -DE/DX =    0.0                 !
 ! D11   D(3,1,8,9)            -76.9938         -DE/DX =    0.0                 !
 ! D12   D(4,1,8,9)            162.8016         -DE/DX =    0.0                 !
 ! D13   D(1,4,5,10)            73.3035         -DE/DX =    0.0                 !
 ! D14   D(1,4,5,12)           -47.2529         -DE/DX =    0.0                 !
 ! D15   D(1,4,5,14)          -167.7047         -DE/DX =    0.0                 !
 ! D16   D(4,5,10,11)          -99.3274         -DE/DX =    0.0                 !
 ! D17   D(12,5,10,11)          21.5503         -DE/DX =    0.0                 !
 ! D18   D(14,5,10,11)         142.6617         -DE/DX =    0.0                 !
 ! D19   D(4,5,12,13)         -104.9497         -DE/DX =    0.0                 !
 ! D20   D(10,5,12,13)         134.1397         -DE/DX =    0.0                 !
 ! D21   D(14,5,12,13)          13.7785         -DE/DX =    0.0                 !
 ! D22   D(4,5,14,15)         -126.9514         -DE/DX =    0.0                 !
 ! D23   D(10,5,14,15)          -7.4952         -DE/DX =    0.0                 !
 ! D24   D(12,5,14,15)         112.9499         -DE/DX =    0.0                 !
 --------------------------------------------------------------------------------
 GradGradGradGradGradGradGradGradGradGradGradGradGradGradGradGradGradGrad

                          Input orientation:                          
 ---------------------------------------------------------------------
 Center     Atomic      Atomic             Coordinates (Angstroms)
 Number     Number       Type             X           Y           Z
 ---------------------------------------------------------------------
      1         14           0       -1.781267    0.020792   -0.071565
      2          8           0       -2.580571    1.435799   -0.356600
      3          8           0       -2.927433   -1.170654   -0.166098
      4          8           0       -0.570364   -0.312421   -1.118341
      5         40           0        1.374474   -0.240299   -1.528721
      6          1           0       -3.309495    1.361661   -0.982152
      7          1           0       -2.576431   -2.038290   -0.394896
      8          8           0       -1.067128    0.160715    1.410922
      9          1           0       -1.600848    0.604586    2.078826
     10          8           0        2.336741   -1.559786   -0.447319
     11          1           0        2.861655   -1.608776    0.356373
     12          8           0        2.070651    1.544833   -1.146312
     13          1           0        2.368735    2.370008   -1.536532
     14          8           0        1.598781   -0.672824   -3.428703
     15          1           0        2.100770   -1.281293   -3.978040
 ---------------------------------------------------------------------
                    Distance matrix (angstroms):
                    1          2          3          4          5
     1  Si   0.000000
     2  O    1.649963   0.000000
     3  O    1.655952   2.636324   0.000000
     4  O    1.634948   2.770822   2.683115   0.000000
     5  Zr   3.485710   4.452590   4.607463   1.988972   0.000000
     6  H    2.227685   0.963401   2.687850   3.213088   4.980420
     7  H    2.230840   3.474302   0.963505   2.743410   4.486422
     8  O    1.651466   2.653391   2.778537   2.620650   3.842361
     9  H    2.235519   2.753556   3.154518   3.482050   4.751923
    10  O    4.426895   5.758621   5.286023   3.233798   1.958682
    11  H    4.939164   6.276591   5.829105   3.953995   2.763696
    12  O    4.279609   4.719047   5.771961   3.228798   1.953866
    13  H    4.988733   5.173067   6.516423   4.001076   2.793262
    14  O    4.814167   5.599205   5.601700   3.189491   1.961459
    15  H    5.659168   6.512478   6.310782   4.031321   2.758684
                    6          7          8          9         10
     6  H    0.000000
     7  H    3.527310   0.000000
     8  O    3.492462   3.220962   0.000000
     9  H    3.586394   3.749113   0.963314   0.000000
    10  O    6.379724   4.936696   4.242583   5.154660   0.000000
    11  H    6.978412   5.506511   4.436046   5.270650   0.961174
    12  O    5.385765   5.915975   4.277954   4.976493   3.193440
    13  H    5.793651   6.722431   5.037223   5.652001   4.078074
    14  O    5.849437   5.338621   5.587829   6.496328   3.196864
    15  H    6.725438   5.940385   6.415285   7.344667   3.549539
                   11         12         13         14         15
    11  H    0.000000
    12  O    3.581759   0.000000
    13  H    4.433596   0.960228   0.000000
    14  O    4.098494   3.217137   3.664964   0.000000
    15  H    4.412859   4.000822   4.400541   0.961248   0.000000
 Stoichiometry    H6O7SiZr
 Framework group  C1[X(H6O7SiZr)]
 Deg. of freedom    39
 Full point group                 C1      NOp   1
 Largest Abelian subgroup         C1      NOp   1
 Largest concise Abelian subgroup C1      NOp   1
                         Standard orientation:                         
 ---------------------------------------------------------------------
 Center     Atomic      Atomic             Coordinates (Angstroms)
 Number     Number       Type             X           Y           Z
 ---------------------------------------------------------------------
      1         14           0       -2.146963   -0.051825   -0.005204
      2          8           0       -2.869743    0.566185   -1.353548
      3          8           0       -3.043481   -1.378096    0.418396
      4          8           0       -0.585797   -0.496753   -0.199768
      5         40           0        1.338592   -0.025436   -0.024840
      6          1           0       -3.260880   -0.095900   -1.933890
      7          1           0       -2.557201   -2.037117    0.925906
      8          8           0       -2.133353    1.149435    1.127990
      9          1           0       -2.932912    1.685685    1.161367
     10          8           0        1.867422   -0.057320    1.860831
     11          1           0        2.009900    0.547493    2.594151
     12          8           0        1.657678    1.757019   -0.758756
     13          1           0        2.020999    2.245288   -1.501474
     14          8           0        2.372997   -1.369496   -1.010149
     15          1           0        3.108114   -1.970266   -0.859563
 ---------------------------------------------------------------------
 Rotational constants (GHZ):           1.6496790           0.4902643           0.4871264

 **********************************************************************

            Population analysis using the SCF Density.

 **********************************************************************

 Orbital symmetries:
       Occupied  (A) (A) (A) (A) (A) (A) (A) (A) (A) (A) (A) (A)
                 (A) (A) (A) (A) (A) (A) (A) (A) (A) (A) (A) (A)
                 (A) (A) (A) (A) (A) (A) (A) (A) (A) (A) (A) (A)
                 (A) (A) (A) (A) (A) (A) (A) (A)
       Virtual   (A) (A) (A) (A) (A) (A) (A) (A) (A) (A) (A) (A)
                 (A) (A) (A) (A) (A) (A) (A) (A) (A) (A) (A) (A)
                 (A) (A) (A) (A) (A) (A) (A) (A) (A) (A) (A) (A)
                 (A) (A) (A) (A) (A) (A) (A) (A) (A) (A) (A) (A)
                 (A) (A) (A) (A) (A) (A) (A) (A) (A) (A) (A) (A)
                 (A) (A) (A) (A) (A) (A) (A) (A) (A) (A) (A) (A)
                 (A) (A) (A) (A) (A) (A) (A) (A) (A) (A) (A) (A)
                 (A) (A) (A) (A) (A) (A) (A) (A) (A) (A) (A) (A)
                 (A) (A) (A) (A) (A) (A) (A) (A) (A) (A) (A) (A)
                 (A) (A) (A) (A) (A) (A) (A) (A) (A) (A) (A) (A)
                 (A) (A) (A) (A)
 The electronic state is 1-A.
 Alpha  occ. eigenvalues --  -66.18378 -19.13917 -19.13881 -19.13822 -19.13661
 Alpha  occ. eigenvalues --  -19.13632 -19.13502 -19.12418  -5.32644  -3.68599
 Alpha  occ. eigenvalues --   -3.68582  -3.68556  -2.06059  -1.26812  -1.26731
 Alpha  occ. eigenvalues --   -1.26372  -1.01562  -0.98397  -0.98162  -0.95823
 Alpha  occ. eigenvalues --   -0.94770  -0.94739  -0.92842  -0.56025  -0.50858
 Alpha  occ. eigenvalues --   -0.50322  -0.48487  -0.48173  -0.47982  -0.44222
 Alpha  occ. eigenvalues --   -0.38295  -0.36598  -0.36050  -0.34984  -0.34677
 Alpha  occ. eigenvalues --   -0.33322  -0.33183  -0.32906  -0.32032  -0.31473
 Alpha  occ. eigenvalues --   -0.31154  -0.30842  -0.29870  -0.29342
 Alpha virt. eigenvalues --   -0.01307  -0.00667  -0.00428   0.01047   0.01528
 Alpha virt. eigenvalues --    0.01730   0.02363   0.02658   0.02893   0.08971
 Alpha virt. eigenvalues --    0.09960   0.10277   0.15449   0.15621   0.16012
 Alpha virt. eigenvalues --    0.17549   0.18641   0.19691   0.20599   0.23287
 Alpha virt. eigenvalues --    0.23816   0.24230   0.25068   0.26204   0.26777
 Alpha virt. eigenvalues --    0.27186   0.29224   0.34441   0.39095   0.39282
 Alpha virt. eigenvalues --    0.42103   0.57637   0.64235   0.71394   0.79740
 Alpha virt. eigenvalues --    0.80891   0.82510   0.85676   0.86348   0.87028
 Alpha virt. eigenvalues --    0.91635   0.93156   0.93816   0.94760   0.96420
 Alpha virt. eigenvalues --    0.97365   0.98480   1.00383   1.01177   1.03777
 Alpha virt. eigenvalues --    1.05608   1.06768   1.08653   1.08989   1.11227
 Alpha virt. eigenvalues --    1.15504   1.17501   1.18893   1.20660   1.21620
 Alpha virt. eigenvalues --    1.21656   1.24634   1.26841   1.37346   1.46723
 Alpha virt. eigenvalues --    1.47529   1.48496   1.51609   1.52836   1.56164
 Alpha virt. eigenvalues --    1.58530   1.59262   1.59611   1.61804   1.62273
 Alpha virt. eigenvalues --    1.63490   1.64547   1.66549   1.66746   1.71559
 Alpha virt. eigenvalues --    1.73267   1.74178   1.78778   1.80014   1.80548
 Alpha virt. eigenvalues --    1.81350   1.82432   1.84252   1.86207   1.87318
 Alpha virt. eigenvalues --    1.91263   1.92149   2.03701   2.05852   2.15205
 Alpha virt. eigenvalues --    2.35166   2.35881   2.37494   2.37807   2.37982
 Alpha virt. eigenvalues --    2.39216   2.44589   2.60332   2.61055   2.62185
 Alpha virt. eigenvalues --    2.63502   2.64057   2.64379   2.64447   2.64984
 Alpha virt. eigenvalues --    2.65044   2.65413   2.66556   2.67089   2.73792
 Alpha virt. eigenvalues --    2.76217   2.81879   3.40869   3.42740   3.43285
 Alpha virt. eigenvalues --    3.43799   3.44030   3.47486   4.13234
          Condensed to atoms (all electrons):
               1          2          3          4          5          6
     1  Si  11.472565   0.384918   0.383938   0.340022  -0.028408  -0.021759
     2  O    0.384918   7.968173  -0.021544  -0.012427   0.001718   0.302397
     3  O    0.383938  -0.021544   7.976824  -0.019190  -0.001069  -0.000297
     4  O    0.340022  -0.012427  -0.019190   8.289960   0.177693  -0.000324
     5  Zr  -0.028408   0.001718  -0.001069   0.177693   9.717395  -0.000865
     6  H   -0.021759   0.302397  -0.000297  -0.000324  -0.000865   0.390430
     7  H   -0.023687   0.000550   0.301036   0.001872  -0.000675  -0.000060
     8  O    0.358811  -0.019525  -0.015189  -0.019933   0.019690   0.000495
     9  H   -0.022308  -0.000313  -0.001040   0.000828  -0.001799  -0.000017
    10  O   -0.002261   0.000000   0.000000   0.000634   0.220070  -0.000000
    11  H   -0.000009  -0.000000   0.000000  -0.000059  -0.016316   0.000000
    12  O   -0.002537   0.000002   0.000000   0.000562   0.219434  -0.000000
    13  H    0.000031  -0.000001  -0.000000  -0.000046  -0.015612  -0.000000
    14  O   -0.000048   0.000000   0.000000   0.000576   0.214878   0.000000
    15  H   -0.000019   0.000000  -0.000000  -0.000026  -0.016147  -0.000000
               7          8          9         10         11         12
     1  Si  -0.023687   0.358811  -0.022308  -0.002261  -0.000009  -0.002537
     2  O    0.000550  -0.019525  -0.000313   0.000000  -0.000000   0.000002
     3  O    0.301036  -0.015189  -0.001040   0.000000   0.000000   0.000000
     4  O    0.001872  -0.019933   0.000828   0.000634  -0.000059   0.000562
     5  Zr  -0.000675   0.019690  -0.001799   0.220070  -0.016316   0.219434
     6  H   -0.000060   0.000495  -0.000017  -0.000000   0.000000  -0.000000
     7  H    0.394090  -0.000855   0.000081  -0.000002  -0.000000  -0.000000
     8  O   -0.000855   7.983592   0.301884  -0.000029  -0.000020  -0.000023
     9  H    0.000081   0.301884   0.392162   0.000001   0.000000   0.000001
    10  O   -0.000002  -0.000029   0.000001   8.175471   0.298165   0.000760
    11  H   -0.000000  -0.000020   0.000000   0.298165   0.385541  -0.000499
    12  O   -0.000000  -0.000023   0.000001   0.000760  -0.000499   8.172388
    13  H    0.000000   0.000000  -0.000000  -0.000050  -0.000003   0.299535
    14  O   -0.000000  -0.000000  -0.000000   0.000853  -0.000027   0.000863
    15  H   -0.000000  -0.000000   0.000000  -0.000527  -0.000002  -0.000088
              13         14         15
     1  Si   0.000031  -0.000048  -0.000019
     2  O   -0.000001   0.000000   0.000000
     3  O   -0.000000   0.000000  -0.000000
     4  O   -0.000046   0.000576  -0.000026
     5  Zr  -0.015612   0.214878  -0.016147
     6  H   -0.000000   0.000000  -0.000000
     7  H    0.000000  -0.000000  -0.000000
     8  O    0.000000  -0.000000  -0.000000
     9  H   -0.000000  -0.000000   0.000000
    10  O   -0.000050   0.000853  -0.000527
    11  H   -0.000003  -0.000027  -0.000002
    12  O    0.299535   0.000863  -0.000088
    13  H    0.384770  -0.000405  -0.000005
    14  O   -0.000405   8.180998   0.297189
    15  H   -0.000005   0.297189   0.388753
 Mulliken charges:
               1
     1  Si   1.160751
     2  O   -0.603949
     3  O   -0.603471
     4  O   -0.760141
     5  Zr   1.510012
     6  H    0.330000
     7  H    0.327650
     8  O   -0.608899
     9  H    0.330521
    10  O   -0.693085
    11  H    0.333228
    12  O   -0.690398
    13  H    0.331786
    14  O   -0.694875
    15  H    0.330872
 Sum of Mulliken charges =  -0.00000
 Mulliken charges with hydrogens summed into heavy atoms:
               1
     1  Si   1.160751
     2  O   -0.273949
     3  O   -0.275821
     4  O   -0.760141
     5  Zr   1.510012
     8  O   -0.278378
    10  O   -0.359857
    12  O   -0.358613
    14  O   -0.364004
 Electronic spatial extent (au):  <R**2>=           2195.3577
 Charge=             -0.0000 electrons
 Dipole moment (field-independent basis, Debye):
    X=              1.7230    Y=             -0.1816    Z=              0.1625  Tot=              1.7401
 Quadrupole moment (field-independent basis, Debye-Ang):
   XX=            -65.7082   YY=            -68.2369   ZZ=            -68.2632
   XY=              0.1299   XZ=             -0.1739   YZ=              0.0025
 Traceless Quadrupole moment (field-independent basis, Debye-Ang):
   XX=              1.6945   YY=             -0.8342   ZZ=             -0.8604
   XY=              0.1299   XZ=             -0.1739   YZ=              0.0025
 Octapole moment (field-independent basis, Debye-Ang**2):
  XXX=             55.6447  YYY=             -6.9433  ZZZ=              1.9883  XYY=             18.3221
  XXY=              5.1654  XXZ=             -7.5381  XZZ=              9.6305  YZZ=             10.6923
  YYZ=              2.9969  XYZ=             -7.8435
 Hexadecapole moment (field-independent basis, Debye-Ang**3):
 XXXX=          -1776.5657 YYYY=           -356.2299 ZZZZ=           -336.6791 XXXY=           -101.4544
 XXXZ=             -0.1578 YYYX=            -12.4534 YYYZ=            -23.9110 ZZZX=             48.7470
 ZZZY=              9.7713 XXYY=           -305.6433 XXZZ=           -316.6954 YYZZ=           -111.9299
 XXYZ=             38.0112 YYXZ=            -49.5198 ZZXY=             52.5108
 N-N= 6.349479582008D+02 E-N=-3.306761792307D+03  KE= 8.297833680372D+02
 1\1\GINC-GRA1232\FOpt\RB3LYP\Gen\H6O7Si1Zr1\SARASHS\24-Jun-2020\0\\#n 
 B3LYP/GEN PSEUDO=READ Opt(modredundant)\\Title\\0,1\Si,-1.7812665889,0
 .0207916958,-0.0715648491\O,-2.5805714544,1.4357988003,-0.3565996802\O
 ,-2.9274330717,-1.1706543267,-0.1660976717\O,-0.570364237,-0.312421031
 8,-1.1183412179\Zr,1.3744744101,-0.240298589,-1.5287214952\H,-3.309494
 8546,1.3616608952,-0.9821523911\H,-2.5764308491,-2.038289653,-0.394896
 0495\O,-1.0671279586,0.1607146296,1.4109223663\H,-1.6008480934,0.60458
 59601,2.0788255502\O,2.3367409151,-1.5597861466,-0.4473192882\H,2.8616
 550112,-1.6087758848,0.3563725106\O,2.0706508399,1.5448331112,-1.14631
 23435\H,2.3687350154,2.3700076072,-1.5365323342\O,1.598780862,-0.67282
 39696,-3.4287033691\H,2.100770054,-1.2812930979,-3.9780397375\\Version
 =ES64L-G16RevB.01\State=1-A\HF=-866.6871876\RMSD=9.161e-09\RMSF=1.121e
 -04\Dipole=0.6057293,-0.1526364,-0.2801863\Quadrupole=0.9137176,-0.643
 7697,-0.2699479,0.0026761,-0.7451821,0.0126094\PG=C01 [X(H6O7Si1Zr1)]\
 \@


 ART, GLORY, FREEDOM FAIL, BUT NATURE STILL IS FAIR.

                                           -- BYRON
 Job cpu time:       0 days  0 hours 50 minutes 17.9 seconds.
 Elapsed time:       0 days  0 hours  3 minutes 17.2 seconds.
 File lengths (MBytes):  RWF=     23 Int=      0 D2E=      0 Chk=      3 Scr=      1
 Normal termination of Gaussian 16 at Wed Jun 24 13:53:47 2020.
