 Entering Gaussian System, Link 0=g16
 Initial command:
 /opt/software/gaussian/g16.b01/l1.exe "/localscratch/sarashs.33453152.0/Gau-24139.inp" -scrdir="/localscratch/sarashs.33453152.0/"
 Entering Link 1 = /opt/software/gaussian/g16.b01/l1.exe PID=     24140.
  
 Copyright (c) 1988-2017, Gaussian, Inc.  All Rights Reserved.
  
 This is part of the Gaussian(R) 16 program.  It is based on
 the Gaussian(R) 09 system (copyright 2009, Gaussian, Inc.),
 the Gaussian(R) 03 system (copyright 2003, Gaussian, Inc.),
 the Gaussian(R) 98 system (copyright 1998, Gaussian, Inc.),
 the Gaussian(R) 94 system (copyright 1995, Gaussian, Inc.),
 the Gaussian 92(TM) system (copyright 1992, Gaussian, Inc.),
 the Gaussian 90(TM) system (copyright 1990, Gaussian, Inc.),
 the Gaussian 88(TM) system (copyright 1988, Gaussian, Inc.),
 the Gaussian 86(TM) system (copyright 1986, Carnegie Mellon
 University), and the Gaussian 82(TM) system (copyright 1983,
 Carnegie Mellon University). Gaussian is a federally registered
 trademark of Gaussian, Inc.
  
 This software contains proprietary and confidential information,
 including trade secrets, belonging to Gaussian, Inc.
  
 This software is provided under written license and may be
 used, copied, transmitted, or stored only in accord with that
 written license.
  
 The following legend is applicable only to US Government
 contracts under FAR:
  
                    RESTRICTED RIGHTS LEGEND
  
 Use, reproduction and disclosure by the US Government is
 subject to restrictions as set forth in subparagraphs (a)
 and (c) of the Commercial Computer Software - Restricted
 Rights clause in FAR 52.227-19.
  
 Gaussian, Inc.
 340 Quinnipiac St., Bldg. 40, Wallingford CT 06492
  
  
 ---------------------------------------------------------------
 Warning -- This program may not be used in any manner that
 competes with the business of Gaussian, Inc. or will provide
 assistance to any competitor of Gaussian, Inc.  The licensee
 of this program is prohibited from giving any competitor of
 Gaussian, Inc. access to this program.  By using this program,
 the user acknowledges that Gaussian, Inc. is engaged in the
 business of creating and licensing software in the field of
 computational chemistry and represents and warrants to the
 licensee that it is not a competitor of Gaussian, Inc. and that
 it will not use this program in any manner prohibited above.
 ---------------------------------------------------------------
  

 Cite this work as:
 Gaussian 16, Revision B.01,
 M. J. Frisch, G. W. Trucks, H. B. Schlegel, G. E. Scuseria, 
 M. A. Robb, J. R. Cheeseman, G. Scalmani, V. Barone, 
 G. A. Petersson, H. Nakatsuji, X. Li, M. Caricato, A. V. Marenich, 
 J. Bloino, B. G. Janesko, R. Gomperts, B. Mennucci, H. P. Hratchian, 
 J. V. Ortiz, A. F. Izmaylov, J. L. Sonnenberg, D. Williams-Young, 
 F. Ding, F. Lipparini, F. Egidi, J. Goings, B. Peng, A. Petrone, 
 T. Henderson, D. Ranasinghe, V. G. Zakrzewski, J. Gao, N. Rega, 
 G. Zheng, W. Liang, M. Hada, M. Ehara, K. Toyota, R. Fukuda, 
 J. Hasegawa, M. Ishida, T. Nakajima, Y. Honda, O. Kitao, H. Nakai, 
 T. Vreven, K. Throssell, J. A. Montgomery, Jr., J. E. Peralta, 
 F. Ogliaro, M. J. Bearpark, J. J. Heyd, E. N. Brothers, K. N. Kudin, 
 V. N. Staroverov, T. A. Keith, R. Kobayashi, J. Normand, 
 K. Raghavachari, A. P. Rendell, J. C. Burant, S. S. Iyengar, 
 J. Tomasi, M. Cossi, J. M. Millam, M. Klene, C. Adamo, R. Cammi, 
 J. W. Ochterski, R. L. Martin, K. Morokuma, O. Farkas, 
 J. B. Foresman, and D. J. Fox, Gaussian, Inc., Wallingford CT, 2016.
 
 ******************************************
 Gaussian 16:  ES64L-G16RevB.01 20-Dec-2017
                24-Jun-2020 
 ******************************************
 %NProcShared=16
 Will use up to   16 processors via shared memory.
 ------------------------------------------
 #n B3LYP/GEN PSEUDO=READ Opt(modredundant)
 ------------------------------------------
 1/18=120,19=15,26=3,38=1/1,3;
 2/9=110,12=2,17=6,18=5,40=1/2;
 3/5=7,11=2,16=1,17=8,25=1,30=1,71=1,74=-5/1,2,3;
 4//1;
 5/5=2,38=5/2;
 6/7=2,8=2,9=2,10=2,28=1/1;
 7//1,2,3,16;
 1/18=20,19=15,26=3/3(2);
 2/9=110/2;
 99//99;
 2/9=110/2;
 3/5=7,6=1,11=2,16=1,17=8,25=1,30=1,71=1,74=-5,82=7/1,2,3;
 4/5=5,16=3,69=1/1;
 5/5=2,38=5/2;
 7//1,2,3,16;
 1/18=20,19=15,26=3/3(-5);
 2/9=110/2;
 6/7=2,8=2,9=2,10=2,19=2,28=1/1;
 99/9=1/99;
 -----
 Title
 -----
 Symbolic Z-matrix:
 Charge =  0 Multiplicity = 1
 Si                   -1.90698  -0.04093  -0.13187 
 O                    -2.77661   1.33183  -0.36828 
 O                    -2.96472  -1.30138  -0.09409 
 O                    -0.62539  -0.3216   -1.09659 
 Zr                    1.16538  -0.02672  -0.14191 
 H                    -3.57833   1.23701  -0.89318 
 H                    -2.59505  -2.1428   -0.38501 
 O                    -1.07346   0.19403   1.32035 
 H                    -1.20745   1.04108   1.76425 
 O                     1.63115  -1.48755   1.09285 
 H                     1.42933  -1.64085   2.02135 
 O                     1.36893   1.7876    0.6309 
 H                     2.02046   2.45612   0.39141 
 O                     2.51444  -0.12943  -1.5531 
 H                     3.27415  -0.64351  -1.83824 
 
 The following ModRedundant input section has been read:
 A       1       4       5 F                                                   
 

 GradGradGradGradGradGradGradGradGradGradGradGradGradGradGradGradGradGrad
 Berny optimization.
 Initialization pass.
                           ----------------------------
                           !    Initial Parameters    !
                           ! (Angstroms and Degrees)  !
 --------------------------                            --------------------------
 ! Name  Definition              Value          Derivative Info.                !
 --------------------------------------------------------------------------------
 ! R1    R(1,2)                  1.6421         estimate D2E/DX2                !
 ! R2    R(1,3)                  1.6459         estimate D2E/DX2                !
 ! R3    R(1,4)                  1.6285         estimate D2E/DX2                !
 ! R4    R(1,5)                  3.0724         estimate D2E/DX2                !
 ! R5    R(1,8)                  1.6908         estimate D2E/DX2                !
 ! R6    R(2,6)                  0.9629         estimate D2E/DX2                !
 ! R7    R(3,7)                  0.964          estimate D2E/DX2                !
 ! R8    R(4,5)                  2.0507         estimate D2E/DX2                !
 ! R9    R(5,10)                 1.9687         estimate D2E/DX2                !
 ! R10   R(5,12)                 1.9825         estimate D2E/DX2                !
 ! R11   R(5,14)                 1.955          estimate D2E/DX2                !
 ! R12   R(8,9)                  0.9657         estimate D2E/DX2                !
 ! R13   R(10,11)                0.9625         estimate D2E/DX2                !
 ! R14   R(12,13)                0.9637         estimate D2E/DX2                !
 ! R15   R(14,15)                0.9606         estimate D2E/DX2                !
 ! A1    A(2,1,3)              107.6477         estimate D2E/DX2                !
 ! A2    A(2,1,4)              118.3958         estimate D2E/DX2                !
 ! A3    A(2,1,5)              121.6835         estimate D2E/DX2                !
 ! A4    A(2,1,8)              105.5776         estimate D2E/DX2                !
 ! A5    A(3,1,4)              112.7909         estimate D2E/DX2                !
 ! A6    A(3,1,5)              130.2602         estimate D2E/DX2                !
 ! A7    A(3,1,8)              113.7977         estimate D2E/DX2                !
 ! A8    A(4,1,8)               98.3257         estimate D2E/DX2                !
 ! A9    A(5,1,8)               60.6073         estimate D2E/DX2                !
 ! A10   A(1,2,6)              115.9167         estimate D2E/DX2                !
 ! A11   A(1,3,7)              114.5237         estimate D2E/DX2                !
 ! A12   A(1,4,5)              112.7475         Frozen                          !
 ! A13   A(1,5,10)             103.3623         estimate D2E/DX2                !
 ! A14   A(1,5,12)              96.0634         estimate D2E/DX2                !
 ! A15   A(1,5,14)             133.8018         estimate D2E/DX2                !
 ! A16   A(4,5,10)             113.0728         estimate D2E/DX2                !
 ! A17   A(4,5,12)             113.749          estimate D2E/DX2                !
 ! A18   A(4,5,14)             105.0107         estimate D2E/DX2                !
 ! A19   A(10,5,12)            114.2238         estimate D2E/DX2                !
 ! A20   A(10,5,14)            104.507          estimate D2E/DX2                !
 ! A21   A(12,5,14)            104.9877         estimate D2E/DX2                !
 ! A22   A(1,8,9)              116.6352         estimate D2E/DX2                !
 ! A23   A(5,10,11)            132.3498         estimate D2E/DX2                !
 ! A24   A(5,12,13)            127.3995         estimate D2E/DX2                !
 ! A25   A(5,14,15)            142.0118         estimate D2E/DX2                !
 ! D1    D(3,1,2,6)            -31.5445         estimate D2E/DX2                !
 ! D2    D(4,1,2,6)             97.8074         estimate D2E/DX2                !
 ! D3    D(5,1,2,6)            141.8233         estimate D2E/DX2                !
 ! D4    D(8,1,2,6)           -153.4334         estimate D2E/DX2                !
 ! D5    D(2,1,3,7)            151.7162         estimate D2E/DX2                !
 ! D6    D(4,1,3,7)             19.2636         estimate D2E/DX2                !
 ! D7    D(5,1,3,7)            -20.8841         estimate D2E/DX2                !
 ! D8    D(8,1,3,7)            -91.6497         estimate D2E/DX2                !
 ! D9    D(2,1,5,10)           149.6586         estimate D2E/DX2                !
 ! D10   D(2,1,5,12)            32.9583         estimate D2E/DX2                !
 ! D11   D(2,1,5,14)           -84.5711         estimate D2E/DX2                !
 ! D12   D(3,1,5,10)           -38.6338         estimate D2E/DX2                !
 ! D13   D(3,1,5,12)          -155.334          estimate D2E/DX2                !
 ! D14   D(3,1,5,14)            87.1366         estimate D2E/DX2                !
 ! D15   D(8,1,5,10)            58.8266         estimate D2E/DX2                !
 ! D16   D(8,1,5,12)           -57.8736         estimate D2E/DX2                !
 ! D17   D(8,1,5,14)          -175.403          estimate D2E/DX2                !
 ! D18   D(2,1,8,9)             -0.7356         estimate D2E/DX2                !
 ! D19   D(3,1,8,9)           -118.5698         estimate D2E/DX2                !
 ! D20   D(4,1,8,9)            121.931          estimate D2E/DX2                !
 ! D21   D(5,1,8,9)            117.219          estimate D2E/DX2                !
 ! D22   D(1,5,10,11)          -59.0994         estimate D2E/DX2                !
 ! D23   D(4,5,10,11)          -88.2379         estimate D2E/DX2                !
 ! D24   D(12,5,10,11)          43.9578         estimate D2E/DX2                !
 ! D25   D(14,5,10,11)         158.1208         estimate D2E/DX2                !
 ! D26   D(1,5,12,13)         -141.2289         estimate D2E/DX2                !
 ! D27   D(4,5,12,13)         -116.9742         estimate D2E/DX2                !
 ! D28   D(10,5,12,13)         111.1549         estimate D2E/DX2                !
 ! D29   D(14,5,12,13)          -2.7242         estimate D2E/DX2                !
 ! D30   D(1,5,14,15)         -123.2911         estimate D2E/DX2                !
 ! D31   D(4,5,14,15)         -117.1593         estimate D2E/DX2                !
 ! D32   D(10,5,14,15)           2.0821         estimate D2E/DX2                !
 ! D33   D(12,5,14,15)         122.6135         estimate D2E/DX2                !
 --------------------------------------------------------------------------------
 Trust Radius=3.00D-01 FncErr=1.00D-07 GrdErr=1.00D-06 EigMax=2.50D+02 EigMin=1.00D-04
 Number of steps in this run=     83 maximum allowed number of steps=    100.
 GradGradGradGradGradGradGradGradGradGradGradGradGradGradGradGradGradGrad

                          Input orientation:                          
 ---------------------------------------------------------------------
 Center     Atomic      Atomic             Coordinates (Angstroms)
 Number     Number       Type             X           Y           Z
 ---------------------------------------------------------------------
      1         14           0       -1.906980   -0.040930   -0.131870
      2          8           0       -2.776610    1.331830   -0.368280
      3          8           0       -2.964720   -1.301380   -0.094090
      4          8           0       -0.625390   -0.321600   -1.096590
      5         40           0        1.165380   -0.026720   -0.141910
      6          1           0       -3.578330    1.237010   -0.893180
      7          1           0       -2.595050   -2.142800   -0.385010
      8          8           0       -1.073460    0.194030    1.320350
      9          1           0       -1.207450    1.041080    1.764250
     10          8           0        1.631150   -1.487550    1.092850
     11          1           0        1.429330   -1.640850    2.021350
     12          8           0        1.368930    1.787600    0.630900
     13          1           0        2.020460    2.456120    0.391410
     14          8           0        2.514440   -0.129430   -1.553100
     15          1           0        3.274150   -0.643510   -1.838240
 ---------------------------------------------------------------------
                    Distance matrix (angstroms):
                    1          2          3          4          5
     1  Si   0.000000
     2  O    1.642138   0.000000
     3  O    1.645897   2.654121   0.000000
     4  O    1.628476   2.809273   2.727167   0.000000
     5  Zr   3.072409   4.175666   4.322588   2.050665   0.000000
     6  H    2.237439   0.962946   2.731023   3.345220   4.966307
     7  H    2.226068   3.479411   0.963991   2.775370   4.321773
     8  O    1.690830   2.654577   2.795310   2.511621   2.683158
     9  H    2.292457   2.663547   3.468219   3.221816   3.225518
    10  O    4.013853   5.432509   4.750317   3.353365   1.968654
    11  H    4.281012   5.677771   4.888558   3.960283   2.711970
    12  O    3.828437   4.288542   5.371027   3.377907   1.982530
    13  H    4.683361   4.985282   6.261512   4.114656   2.679568
    14  O    4.645071   5.615540   5.789937   3.178657   1.954986
    15  H    5.488070   6.532568   6.511402   3.982472   2.775766
                    6          7          8          9         10
     6  H    0.000000
     7  H    3.556430   0.000000
     8  O    3.501699   3.268679   0.000000
     9  H    3.566706   4.084341   0.965657   0.000000
    10  O    6.205338   4.524841   3.192864   3.860362   0.000000
    11  H    6.469407   4.715735   3.181532   3.769809   0.962468
    12  O    5.205896   5.673910   2.996677   2.911960   3.317946
    13  H    5.872210   6.561694   3.943643   3.782384   4.024440
    14  O    6.278893   5.614711   4.608076   5.121266   3.102538
    15  H    7.168401   6.229547   5.438739   5.991704   3.464555
                   11         12         13         14         15
    11  H    0.000000
    12  O    3.700171   0.000000
    13  H    4.448742   0.963725   0.000000
    14  O    4.029708   3.123628   3.272645   0.000000
    15  H    4.392549   3.954341   4.018804   0.960595   0.000000
 Stoichiometry    H6O7SiZr
 Framework group  C1[X(H6O7SiZr)]
 Deg. of freedom    39
 Full point group                 C1      NOp   1
 Largest Abelian subgroup         C1      NOp   1
 Largest concise Abelian subgroup C1      NOp   1
                         Standard orientation:                         
 ---------------------------------------------------------------------
 Center     Atomic      Atomic             Coordinates (Angstroms)
 Number     Number       Type             X           Y           Z
 ---------------------------------------------------------------------
      1         14           0       -1.937288   -0.041560   -0.126185
      2          8           0       -2.804469    1.327091   -0.393408
      3          8           0       -2.991447   -1.305498   -0.112558
      4          8           0       -0.627968   -0.322107   -1.052958
      5         40           0        1.134060   -0.016712   -0.049357
      6          1           0       -3.590686    1.227124   -0.940341
      7          1           0       -2.610873   -2.146927   -0.389034
      8          8           0       -1.146005    0.202825    1.347943
      9          1           0       -1.295344    1.051391    1.783979
     10          8           0        1.569577   -1.470346    1.204784
     11          1           0        1.342068   -1.620170    2.127897
     12          8           0        1.309574    1.801762    0.720561
     13          1           0        1.965380    2.471460    0.496533
     14          8           0        2.522866   -0.121074   -1.421325
     15          1           0        3.292061   -0.633786   -1.682491
 ---------------------------------------------------------------------
 Rotational constants (GHZ):           1.7614293           0.5953047           0.5716179
 General basis read from cards:  (5D, 7F)
 ======================================================================================================
                                       Pseudopotential Parameters
 ======================================================================================================
  Center     Atomic      Valence      Angular      Power
  Number     Number     Electrons     Momentum     of R      Exponent        Coefficient   SO-Coeffient
 ======================================================================================================
    1         14
                                   No pseudopotential on this center.
    2          8
                                   No pseudopotential on this center.
    3          8
                                   No pseudopotential on this center.
    4          8
                                   No pseudopotential on this center.
    5         40           12
                                      F and up 
                                                     0      645.9321873       -0.04258430    0.00000000
                                                     1      134.7547401      -20.22224090    0.00000000
                                                     2       42.3074619     -101.86951720    0.00000000
                                                     2       12.0003227      -41.61957840    0.00000000
                                                     2        4.1260454       -4.69861600    0.00000000
                                      S - F
                                                     0      117.6251862        2.79105590    0.00000000
                                                     1       22.9646089       41.94894590    0.00000000
                                                     2        4.5225298       67.72718660    0.00000000
                                      P - F
                                                     0       47.1953145        4.99111440    0.00000000
                                                     1       48.0356033       20.71931720    0.00000000
                                                     2       19.4541456      195.58677580    0.00000000
                                                     2        4.0512875       48.28771760    0.00000000
                                      D - F
                                                     0       79.9073983        3.00492260    0.00000000
                                                     1       45.8263798       25.93779890    0.00000000
                                                     2       26.9903522      125.12449340    0.00000000
                                                     2        9.6835718       70.76340220    0.00000000
                                                     2        2.7995666       15.04928220    0.00000000
    6          1
                                   No pseudopotential on this center.
    7          1
                                   No pseudopotential on this center.
    8          8
                                   No pseudopotential on this center.
    9          1
                                   No pseudopotential on this center.
   10          8
                                   No pseudopotential on this center.
   11          1
                                   No pseudopotential on this center.
   12          8
                                   No pseudopotential on this center.
   13          1
                                   No pseudopotential on this center.
   14          8
                                   No pseudopotential on this center.
   15          1
                                   No pseudopotential on this center.
 ======================================================================================================
 There are   178 symmetry adapted cartesian basis functions of A   symmetry.
 There are   168 symmetry adapted basis functions of A   symmetry.
   168 basis functions,   339 primitive gaussians,   178 cartesian basis functions
    44 alpha electrons       44 beta electrons
       nuclear repulsion energy       659.6613970114 Hartrees.
 NAtoms=   15 NActive=   15 NUniq=   15 SFac= 1.00D+00 NAtFMM=   60 NAOKFM=F Big=F
 Integral buffers will be    131072 words long.
 Raffenetti 2 integral format.
 Two-electron integral symmetry is turned on.
 One-electron integrals computed using PRISM.
   1 Symmetry operations used in ECPInt.
 ECPInt:  NShTT=    1770 NPrTT=   10201 LenC2=    1666 LenP2D=    6709.
 LDataN:  DoStor=T MaxTD1= 5 Len=  102
 NBasis=   168 RedAO= T EigKep=  9.13D-03  NBF=   168
 NBsUse=   168 1.00D-06 EigRej= -1.00D+00 NBFU=   168
 Defaulting to unpruned grid for atomic number  40.
 ExpMin= 2.43D-02 ExpMax= 1.61D+04 ExpMxC= 2.43D+03 IAcc=3 IRadAn=         5 AccDes= 0.00D+00
 Harris functional with IExCor=  402 and IRadAn=       5 diagonalized for initial guess.
 HarFok:  IExCor=  402 AccDes= 0.00D+00 IRadAn=         5 IDoV= 1 UseB2=F ITyADJ=14
 ICtDFT=  3500011 ScaDFX=  1.000000  1.000000  1.000000  1.000000
 Defaulting to unpruned grid for atomic number  40.
 FoFCou: FMM=F IPFlag=           0 FMFlag=      100000 FMFlg1=           0
         NFxFlg=           0 DoJE=T BraDBF=F KetDBF=T FulRan=T
         wScrn=  0.000000 ICntrl=       500 IOpCl=  0 I1Cent=   200000004 NGrid=           0
         NMat0=    1 NMatS0=      1 NMatT0=    0 NMatD0=    1 NMtDS0=    0 NMtDT0=    0
 Petite list used in FoFCou.
 Requested convergence on RMS density matrix=1.00D-08 within 128 cycles.
 Requested convergence on MAX density matrix=1.00D-06.
 Requested convergence on             energy=1.00D-06.
 No special actions if energy rises.
 Defaulting to unpruned grid for atomic number  40.
 Defaulting to unpruned grid for atomic number  40.
 Defaulting to unpruned grid for atomic number  40.
 Defaulting to unpruned grid for atomic number  40.
 Defaulting to unpruned grid for atomic number  40.
 Defaulting to unpruned grid for atomic number  40.
 Defaulting to unpruned grid for atomic number  40.
 Defaulting to unpruned grid for atomic number  40.
 Defaulting to unpruned grid for atomic number  40.
 Defaulting to unpruned grid for atomic number  40.
 Defaulting to unpruned grid for atomic number  40.
 Defaulting to unpruned grid for atomic number  40.
 Defaulting to unpruned grid for atomic number  40.
 Defaulting to unpruned grid for atomic number  40.
 Defaulting to unpruned grid for atomic number  40.
 Defaulting to unpruned grid for atomic number  40.
 SCF Done:  E(RB3LYP) =  -866.688641656     A.U. after   15 cycles
            NFock= 15  Conv=0.23D-08     -V/T= 2.0445

 **********************************************************************

            Population analysis using the SCF Density.

 **********************************************************************

 Orbital symmetries:
       Occupied  (A) (A) (A) (A) (A) (A) (A) (A) (A) (A) (A) (A)
                 (A) (A) (A) (A) (A) (A) (A) (A) (A) (A) (A) (A)
                 (A) (A) (A) (A) (A) (A) (A) (A) (A) (A) (A) (A)
                 (A) (A) (A) (A) (A) (A) (A) (A)
       Virtual   (A) (A) (A) (A) (A) (A) (A) (A) (A) (A) (A) (A)
                 (A) (A) (A) (A) (A) (A) (A) (A) (A) (A) (A) (A)
                 (A) (A) (A) (A) (A) (A) (A) (A) (A) (A) (A) (A)
                 (A) (A) (A) (A) (A) (A) (A) (A) (A) (A) (A) (A)
                 (A) (A) (A) (A) (A) (A) (A) (A) (A) (A) (A) (A)
                 (A) (A) (A) (A) (A) (A) (A) (A) (A) (A) (A) (A)
                 (A) (A) (A) (A) (A) (A) (A) (A) (A) (A) (A) (A)
                 (A) (A) (A) (A) (A) (A) (A) (A) (A) (A) (A) (A)
                 (A) (A) (A) (A) (A) (A) (A) (A) (A) (A) (A) (A)
                 (A) (A) (A) (A) (A) (A) (A) (A) (A) (A) (A) (A)
                 (A) (A) (A) (A)
 The electronic state is 1-A.
 Alpha  occ. eigenvalues --  -66.19616 -19.16167 -19.15317 -19.15240 -19.13645
 Alpha  occ. eigenvalues --  -19.13214 -19.13171 -19.12104  -5.33957  -3.69947
 Alpha  occ. eigenvalues --   -3.69886  -3.69821  -2.05850  -1.26502  -1.26430
 Alpha  occ. eigenvalues --   -1.25991  -1.03283  -1.00434  -0.99868  -0.95289
 Alpha  occ. eigenvalues --   -0.94564  -0.94061  -0.92896  -0.57733  -0.52944
 Alpha  occ. eigenvalues --   -0.52159  -0.48193  -0.47204  -0.46649  -0.43349
 Alpha  occ. eigenvalues --   -0.39447  -0.38837  -0.37754  -0.35959  -0.34810
 Alpha  occ. eigenvalues --   -0.34020  -0.33814  -0.33387  -0.32194  -0.31669
 Alpha  occ. eigenvalues --   -0.30671  -0.30591  -0.30021  -0.29706
 Alpha virt. eigenvalues --   -0.01774  -0.01124  -0.00113   0.00532   0.01587
 Alpha virt. eigenvalues --    0.02121   0.02827   0.03130   0.04519   0.08375
 Alpha virt. eigenvalues --    0.09392   0.11869   0.14493   0.15221   0.16144
 Alpha virt. eigenvalues --    0.17013   0.17945   0.18997   0.19641   0.23423
 Alpha virt. eigenvalues --    0.23744   0.24551   0.24988   0.26563   0.28643
 Alpha virt. eigenvalues --    0.30288   0.31962   0.33429   0.38218   0.39044
 Alpha virt. eigenvalues --    0.41566   0.56307   0.63794   0.73034   0.78939
 Alpha virt. eigenvalues --    0.80367   0.84261   0.86241   0.87200   0.89497
 Alpha virt. eigenvalues --    0.90767   0.91514   0.93032   0.94977   0.95665
 Alpha virt. eigenvalues --    0.97367   0.98431   1.00145   1.01790   1.04103
 Alpha virt. eigenvalues --    1.07682   1.07897   1.08211   1.09951   1.12680
 Alpha virt. eigenvalues --    1.14475   1.15907   1.19129   1.19909   1.21177
 Alpha virt. eigenvalues --    1.23748   1.25403   1.27325   1.37816   1.47365
 Alpha virt. eigenvalues --    1.48388   1.50515   1.52301   1.52792   1.56706
 Alpha virt. eigenvalues --    1.57635   1.58287   1.60572   1.60815   1.63093
 Alpha virt. eigenvalues --    1.63655   1.64433   1.67523   1.68829   1.70850
 Alpha virt. eigenvalues --    1.73110   1.75589   1.80103   1.80299   1.81562
 Alpha virt. eigenvalues --    1.82731   1.83596   1.85600   1.86648   1.88255
 Alpha virt. eigenvalues --    1.91058   1.92562   2.00925   2.08696   2.13616
 Alpha virt. eigenvalues --    2.35555   2.35727   2.36407   2.37376   2.38406
 Alpha virt. eigenvalues --    2.39581   2.43301   2.56074   2.59427   2.62340
 Alpha virt. eigenvalues --    2.62536   2.63957   2.64202   2.64302   2.64782
 Alpha virt. eigenvalues --    2.64987   2.65237   2.65914   2.66640   2.72506
 Alpha virt. eigenvalues --    2.77497   2.82165   3.40830   3.42120   3.42707
 Alpha virt. eigenvalues --    3.44041   3.45573   3.46460   4.15653
          Condensed to atoms (all electrons):
               1          2          3          4          5          6
     1  Si  11.559229   0.387889   0.395163   0.345156  -0.092528  -0.022009
     2  O    0.387889   7.951696  -0.020247  -0.010563   0.004484   0.304194
     3  O    0.395163  -0.020247   7.943529  -0.016942  -0.000555  -0.001005
     4  O    0.345156  -0.010563  -0.016942   8.270903   0.190383  -0.000298
     5  Zr  -0.092528   0.004484  -0.000555   0.190383   9.778116  -0.000930
     6  H   -0.022009   0.304194  -0.001005  -0.000298  -0.000930   0.380153
     7  H   -0.018047   0.000383   0.301779   0.001210  -0.002858  -0.000043
     8  O    0.261875  -0.018403  -0.012858  -0.039525   0.106835   0.000628
     9  H   -0.009920   0.000871  -0.000209   0.000925  -0.011125   0.000015
    10  O   -0.006179  -0.000000   0.000001   0.000227   0.224970  -0.000000
    11  H    0.000110  -0.000000   0.000000  -0.000078  -0.016834   0.000000
    12  O   -0.007095   0.000003  -0.000000   0.000350   0.225295   0.000000
    13  H    0.000358  -0.000001   0.000000  -0.000018  -0.017167  -0.000000
    14  O   -0.000318   0.000000  -0.000000   0.000670   0.210783   0.000000
    15  H   -0.000013   0.000000   0.000000  -0.000058  -0.014475  -0.000000
               7          8          9         10         11         12
     1  Si  -0.018047   0.261875  -0.009920  -0.006179   0.000110  -0.007095
     2  O    0.000383  -0.018403   0.000871  -0.000000  -0.000000   0.000003
     3  O    0.301779  -0.012858  -0.000209   0.000001   0.000000  -0.000000
     4  O    0.001210  -0.039525   0.000925   0.000227  -0.000078   0.000350
     5  Zr  -0.002858   0.106835  -0.011125   0.224970  -0.016834   0.225295
     6  H   -0.000043   0.000628   0.000015  -0.000000   0.000000   0.000000
     7  H    0.382607  -0.000208   0.000052  -0.000002  -0.000001  -0.000000
     8  O   -0.000208   8.050458   0.297135  -0.002744  -0.000533  -0.004507
     9  H    0.000052   0.297135   0.365212  -0.000085  -0.000015   0.001204
    10  O   -0.000002  -0.002744  -0.000085   8.176738   0.295008   0.000776
    11  H   -0.000001  -0.000533  -0.000015   0.295008   0.391381  -0.000303
    12  O   -0.000000  -0.004507   0.001204   0.000776  -0.000303   8.189522
    13  H   -0.000000   0.000159  -0.000050  -0.000058  -0.000000   0.291715
    14  O   -0.000000  -0.000032   0.000004   0.000837   0.000009   0.000521
    15  H    0.000000  -0.000001  -0.000000  -0.000537   0.000001  -0.000103
              13         14         15
     1  Si   0.000358  -0.000318  -0.000013
     2  O   -0.000001   0.000000   0.000000
     3  O    0.000000  -0.000000   0.000000
     4  O   -0.000018   0.000670  -0.000058
     5  Zr  -0.017167   0.210783  -0.014475
     6  H   -0.000000   0.000000  -0.000000
     7  H   -0.000000  -0.000000   0.000000
     8  O    0.000159  -0.000032  -0.000001
     9  H   -0.000050   0.000004  -0.000000
    10  O   -0.000058   0.000837  -0.000537
    11  H   -0.000000   0.000009   0.000001
    12  O    0.291715   0.000521  -0.000103
    13  H    0.397440  -0.001475  -0.000002
    14  O   -0.001475   8.180020   0.299175
    15  H   -0.000002   0.299175   0.382602
 Mulliken charges:
               1
     1  Si   1.206328
     2  O   -0.600306
     3  O   -0.588656
     4  O   -0.742343
     5  Zr   1.415605
     6  H    0.339295
     7  H    0.335128
     8  O   -0.638277
     9  H    0.355985
    10  O   -0.688952
    11  H    0.331254
    12  O   -0.697379
    13  H    0.329101
    14  O   -0.690194
    15  H    0.333411
 Sum of Mulliken charges =  -0.00000
 Mulliken charges with hydrogens summed into heavy atoms:
               1
     1  Si   1.206328
     2  O   -0.261010
     3  O   -0.253529
     4  O   -0.742343
     5  Zr   1.415605
     8  O   -0.282292
    10  O   -0.357698
    12  O   -0.368278
    14  O   -0.356783
 Electronic spatial extent (au):  <R**2>=           1923.6137
 Charge=             -0.0000 electrons
 Dipole moment (field-independent basis, Debye):
    X=              0.2959    Y=             -0.1542    Z=              0.4493  Tot=              0.5597
 Quadrupole moment (field-independent basis, Debye-Ang):
   XX=            -65.0698   YY=            -69.3637   ZZ=            -71.5542
   XY=              0.8222   XZ=              1.7295   YZ=              1.3321
 Traceless Quadrupole moment (field-independent basis, Debye-Ang):
   XX=              3.5927   YY=             -0.7011   ZZ=             -2.8916
   XY=              0.8222   XZ=              1.7295   YZ=              1.3321
 Octapole moment (field-independent basis, Debye-Ang**2):
  XXX=             41.0862  YYY=             -3.8735  ZZZ=             17.7374  XYY=              9.6950
  XXY=             12.8341  XXZ=            -29.2189  XZZ=              7.7559  YZZ=             -4.6594
  YYZ=             -1.7074  XYZ=              2.6912
 Hexadecapole moment (field-independent basis, Debye-Ang**3):
 XXXX=          -1391.4771 YYYY=           -372.3927 ZZZZ=           -319.0064 XXXY=            -70.8988
 XXXZ=             17.4637 YYYX=             77.1216 YYYZ=              8.1182 ZZZX=              5.4030
 ZZZY=            -11.8360 XXYY=           -290.0086 XXZZ=           -274.6456 YYZZ=           -111.2713
 XXYZ=             20.9381 YYXZ=              3.5998 ZZXY=            -36.2767
 N-N= 6.596613970114D+02 E-N=-3.355693788386D+03  KE= 8.297528020003D+02
   1 Symmetry operations used in ECPInt.
 ECPInt:  NShTT=    1770 NPrTT=   10201 LenC2=    1666 LenP2D=    6709.
 LDataN:  DoStor=T MaxTD1= 6 Len=  172
 Calling FoFJK, ICntrl=      2127 FMM=F ISym2X=0 I1Cent= 0 IOpClX= 0 NMat=1 NMatS=1 NMatT=0.
 Defaulting to unpruned grid for atomic number  40.
 Defaulting to unpruned grid for atomic number  40.
 Defaulting to unpruned grid for atomic number  40.
 Defaulting to unpruned grid for atomic number  40.
 Defaulting to unpruned grid for atomic number  40.
 Defaulting to unpruned grid for atomic number  40.
 Defaulting to unpruned grid for atomic number  40.
 Defaulting to unpruned grid for atomic number  40.
 Defaulting to unpruned grid for atomic number  40.
 Defaulting to unpruned grid for atomic number  40.
 Defaulting to unpruned grid for atomic number  40.
 Defaulting to unpruned grid for atomic number  40.
 Defaulting to unpruned grid for atomic number  40.
 Defaulting to unpruned grid for atomic number  40.
 Defaulting to unpruned grid for atomic number  40.
 Defaulting to unpruned grid for atomic number  40.
 ***** Axes restored to original set *****
 -------------------------------------------------------------------
 Center     Atomic                   Forces (Hartrees/Bohr)
 Number     Number              X              Y              Z
 -------------------------------------------------------------------
      1       14           0.003983672    0.000739148    0.003265040
      2        8          -0.000243229    0.000192322   -0.000473415
      3        8          -0.000110033   -0.000238234   -0.000354975
      4        8           0.001412981   -0.000339886   -0.001816938
      5       40          -0.003519785    0.000444237   -0.001191720
      6        1          -0.000007843    0.000032456   -0.000000852
      7        1          -0.000013242    0.000034842    0.000035480
      8        8           0.000987741    0.000433974   -0.000376538
      9        1          -0.000510256   -0.000539091   -0.000191008
     10        8          -0.000795905    0.000765021    0.000325578
     11        1           0.000150626   -0.000241455    0.000175898
     12        8          -0.000481539   -0.001608623   -0.000276066
     13        1          -0.000142660    0.000172257    0.000183918
     14        8          -0.000698928    0.000317734    0.000509475
     15        1          -0.000011601   -0.000164703    0.000186124
 -------------------------------------------------------------------
 Cartesian Forces:  Max     0.003983672 RMS     0.001097831

 GradGradGradGradGradGradGradGradGradGradGradGradGradGradGradGradGradGrad
 Berny optimization.
 FormGI is forming the generalized inverse of G from B-inverse, IUseBI=4.
 Internal  Forces:  Max     0.004191764 RMS     0.000733377
 Search for a local minimum.
 Step number   1 out of a maximum of   83
 All quantities printed in internal units (Hartrees-Bohrs-Radians)
 Mixed Optimization -- En-DIIS/RFO-DIIS
 Second derivative matrix not updated -- first step.
 ITU=  0
     Eigenvalues ---    0.00230   0.00230   0.00230   0.00554   0.03138
     Eigenvalues ---    0.03732   0.03782   0.04550   0.04861   0.07943
     Eigenvalues ---    0.08338   0.10135   0.12879   0.15151   0.15388
     Eigenvalues ---    0.16000   0.16000   0.16000   0.16000   0.16000
     Eigenvalues ---    0.16000   0.18400   0.18952   0.19042   0.19683
     Eigenvalues ---    0.20440   0.21614   0.22747   0.35366   0.37017
     Eigenvalues ---    0.43277   0.43863   0.54274   0.54624   0.54680
     Eigenvalues ---    0.54844   0.54946   0.553461000.000001000.00000
     Eigenvalues --- 1000.000001000.000001000.000001000.000001000.00000
     Eigenvalues --- 1000.000001000.000001000.000001000.000001000.00000
     Eigenvalues --- 1000.000001000.000001000.000001000.000001000.00000
     Eigenvalues --- 1000.000001000.000001000.000001000.000001000.00000
     Eigenvalues --- 1000.000001000.000001000.000001000.000001000.00000
     Eigenvalues --- 1000.000001000.000001000.000001000.000001000.00000
     Eigenvalues --- 1000.000001000.000001000.00000
 RFO step:  Lambda=-2.03537683D-04 EMin= 2.30000000D-03
 Linear search not attempted -- first point.
 Iteration  1 RMS(Cart)=  0.00863589 RMS(Int)=  0.00001964
 Iteration  2 RMS(Cart)=  0.00002115 RMS(Int)=  0.00000868
 Iteration  3 RMS(Cart)=  0.00000000 RMS(Int)=  0.00000868
 Iteration  1 RMS(Cart)=  0.00000073 RMS(Int)=  0.00000062
 Variable       Old X    -DE/DX   Delta X   Delta X   Delta X     New X
                                 (Linear)    (Quad)   (Total)
    R1        3.10319   0.00039   0.00000   0.00088   0.00088   3.10408
    R2        3.11029   0.00023   0.00000   0.00053   0.00053   3.11082
    R3        3.07737   0.00118   0.00000  -0.00339  -0.00339   3.07398
    R4        5.80601  -0.00419   0.00000  -0.02438  -0.02438   5.78163
    R5        3.19520  -0.00027   0.00000  -0.00072  -0.00072   3.19448
    R6        1.81970   0.00000   0.00000   0.00001   0.00001   1.81971
    R7        1.82168  -0.00005   0.00000  -0.00008  -0.00008   1.82160
    R8        3.87519  -0.00111   0.00000  -0.02489  -0.02489   3.85031
    R9        3.72022  -0.00023   0.00000  -0.00115  -0.00115   3.71907
   R10        3.74644  -0.00141   0.00000  -0.00745  -0.00745   3.73899
   R11        3.69439  -0.00100   0.00000  -0.00489  -0.00489   3.68950
   R12        1.82483  -0.00049   0.00000  -0.00090  -0.00090   1.82393
   R13        1.81880   0.00018   0.00000   0.00032   0.00032   1.81912
   R14        1.82118  -0.00002   0.00000  -0.00004  -0.00004   1.82113
   R15        1.81526   0.00002   0.00000   0.00004   0.00004   1.81530
    A1        1.87881  -0.00017   0.00000  -0.00034  -0.00034   1.87846
    A2        2.06640  -0.00044   0.00000  -0.00219  -0.00218   2.06421
    A3        2.12378   0.00026   0.00000   0.00172   0.00171   2.12549
    A4        1.84268   0.00046   0.00000   0.00249   0.00248   1.84516
    A5        1.96857  -0.00039   0.00000  -0.00030  -0.00030   1.96827
    A6        2.27347  -0.00009   0.00000  -0.00200  -0.00200   2.27147
    A7        1.98615   0.00044   0.00000   0.00307   0.00307   1.98921
    A8        1.71611   0.00026   0.00000  -0.00225  -0.00225   1.71386
    A9        1.05780  -0.00084   0.00000  -0.00087  -0.00086   1.05693
   A10        2.02313   0.00006   0.00000   0.00036   0.00036   2.02349
   A11        1.99882   0.00000   0.00000   0.00002   0.00002   1.99884
   A12        1.96781  -0.00219   0.00000   0.00000  -0.00000   1.96781
   A13        1.80401  -0.00082   0.00000  -0.00487  -0.00490   1.79911
   A14        1.67662  -0.00080   0.00000  -0.00477  -0.00479   1.67183
   A15        2.33528   0.00087   0.00000   0.00359   0.00360   2.33888
   A16        1.97349   0.00005   0.00000  -0.00031  -0.00032   1.97317
   A17        1.98529  -0.00019   0.00000  -0.00261  -0.00263   1.98267
   A18        1.83278  -0.00030   0.00000   0.00170   0.00169   1.83448
   A19        1.99358  -0.00035   0.00000  -0.00632  -0.00635   1.98723
   A20        1.82399   0.00041   0.00000   0.00495   0.00496   1.82895
   A21        1.83238   0.00049   0.00000   0.00474   0.00476   1.83714
   A22        2.03567  -0.00055   0.00000  -0.00346  -0.00346   2.03221
   A23        2.30994   0.00051   0.00000   0.00316   0.00316   2.31310
   A24        2.22354   0.00052   0.00000   0.00327   0.00327   2.22682
   A25        2.47857  -0.00045   0.00000  -0.00281  -0.00281   2.47576
    D1       -0.55056   0.00043   0.00000   0.00311   0.00311  -0.54745
    D2        1.70706  -0.00066   0.00000   0.00048   0.00049   1.70755
    D3        2.47528   0.00048   0.00000  -0.00206  -0.00206   2.47322
    D4       -2.67792  -0.00025   0.00000  -0.00168  -0.00168  -2.67960
    D5        2.64795  -0.00041   0.00000  -0.00313  -0.00313   2.64482
    D6        0.33621   0.00065   0.00000   0.00038   0.00037   0.33659
    D7       -0.36450  -0.00050   0.00000   0.00227   0.00227  -0.36222
    D8       -1.59959   0.00030   0.00000   0.00149   0.00149  -1.59810
    D9        2.61203  -0.00046   0.00000  -0.00082  -0.00081   2.61122
   D10        0.57523   0.00036   0.00000   0.00853   0.00852   0.58376
   D11       -1.47604  -0.00002   0.00000   0.00452   0.00452  -1.47152
   D12       -0.67429  -0.00039   0.00000  -0.00706  -0.00706  -0.68134
   D13       -2.71109   0.00042   0.00000   0.00229   0.00228  -2.70881
   D14        1.52082   0.00005   0.00000  -0.00172  -0.00172   1.51910
   D15        1.02672  -0.00040   0.00000  -0.00257  -0.00256   1.02415
   D16       -1.01008   0.00042   0.00000   0.00678   0.00677  -1.00331
   D17       -3.06136   0.00005   0.00000   0.00277   0.00277  -3.05859
   D18       -0.01284   0.00033   0.00000   0.00768   0.00769  -0.00515
   D19       -2.06943  -0.00001   0.00000   0.00481   0.00480  -2.06463
   D20        2.12810   0.00011   0.00000   0.00520   0.00521   2.13330
   D21        2.04586   0.00039   0.00000   0.00842   0.00842   2.05428
   D22       -1.03148   0.00077   0.00000  -0.00366  -0.00367  -1.03515
   D23       -1.54004  -0.00012   0.00000  -0.00350  -0.00350  -1.54355
   D24        0.76721  -0.00070   0.00000  -0.01387  -0.01385   0.75336
   D25        2.75973  -0.00002   0.00000  -0.00823  -0.00824   2.75149
   D26       -2.46491  -0.00078   0.00000   0.00039   0.00040  -2.46451
   D27       -2.04158   0.00017   0.00000   0.00055   0.00056  -2.04102
   D28        1.94002   0.00063   0.00000   0.00989   0.00987   1.94989
   D29       -0.04755   0.00001   0.00000   0.00416   0.00416  -0.04338
   D30       -2.15184   0.00000   0.00000   0.00038   0.00038  -2.15146
   D31       -2.04481  -0.00008   0.00000  -0.00028  -0.00028  -2.04510
   D32        0.03634   0.00003   0.00000   0.00237   0.00237   0.03871
   D33        2.14001   0.00005   0.00000  -0.00032  -0.00032   2.13969
         Item               Value     Threshold  Converged?
 Maximum Force            0.002542     0.000450     NO 
 RMS     Force            0.000559     0.000300     NO 
 Maximum Displacement     0.028141     0.001800     NO 
 RMS     Displacement     0.008647     0.001200     NO 
 Predicted change in Energy=-1.018552D-04
 GradGradGradGradGradGradGradGradGradGradGradGradGradGradGradGradGradGrad

                          Input orientation:                          
 ---------------------------------------------------------------------
 Center     Atomic      Atomic             Coordinates (Angstroms)
 Number     Number       Type             X           Y           Z
 ---------------------------------------------------------------------
      1         14           0       -1.899016   -0.039594   -0.129810
      2          8           0       -2.770661    1.332080   -0.368345
      3          8           0       -2.955503   -1.301477   -0.092670
      4          8           0       -0.619989   -0.317430   -1.095725
      5         40           0        1.160414   -0.028300   -0.148122
      6          1           0       -3.573016    1.235537   -0.891968
      7          1           0       -2.585242   -2.142055   -0.385121
      8          8           0       -1.060264    0.196834    1.318709
      9          1           0       -1.199382    1.042454    1.762719
     10          8           0        1.618675   -1.485597    1.092637
     11          1           0        1.419404   -1.635416    2.022432
     12          8           0        1.357985    1.779110    0.632287
     13          1           0        2.005568    2.453132    0.397652
     14          8           0        2.508838   -0.130174   -1.556393
     15          1           0        3.268038   -0.646202   -1.839443
 ---------------------------------------------------------------------
                    Distance matrix (angstroms):
                    1          2          3          4          5
     1  Si   0.000000
     2  O    1.642606   0.000000
     3  O    1.646175   2.654390   0.000000
     4  O    1.626682   2.806307   2.725637   0.000000
     5  Zr   3.059506   4.165632   4.308692   2.037494   0.000000
     6  H    2.238106   0.962951   2.730684   3.342692   4.955396
     7  H    2.226304   3.479120   0.963947   2.774245   4.307443
     8  O    1.690447   2.657140   2.798009   2.507549   2.670897
     9  H    2.289538   2.663500   3.467051   3.218025   3.219700
    10  O    3.994928   5.416645   4.728843   3.341430   1.968045
    11  H    4.265057   5.663788   4.870830   3.952102   2.713154
    12  O    3.807431   4.271630   5.349931   3.360638   1.978587
    13  H    4.662368   4.965469   6.240972   4.098749   2.677623
    14  O    4.633845   5.605601   5.776977   3.168097   1.952397
    15  H    5.476245   6.522547   6.497158   3.972148   2.772084
                    6          7          8          9         10
     6  H    0.000000
     7  H    3.555379   0.000000
     8  O    3.504271   3.270932   0.000000
     9  H    3.566340   4.083494   0.965180   0.000000
    10  O    6.188447   4.504178   3.171498   3.844672   0.000000
    11  H    6.454483   4.700020   3.162455   3.754529   0.962639
    12  O    5.189758   5.653290   2.970304   2.891482   3.307294
    13  H    5.853739   6.542478   3.916447   3.758341   4.018244
    14  O    6.268618   5.600821   4.594741   5.112970   3.105950
    15  H    7.158119   6.213977   5.423914   5.982055   3.467287
                   11         12         13         14         15
    11  H    0.000000
    12  O    3.687176   0.000000
    13  H    4.438438   0.963703   0.000000
    14  O    4.032445   3.124124   3.277964   0.000000
    15  H    4.394323   3.954730   4.025456   0.960618   0.000000
 Stoichiometry    H6O7SiZr
 Framework group  C1[X(H6O7SiZr)]
 Deg. of freedom    39
 Full point group                 C1      NOp   1
 Largest Abelian subgroup         C1      NOp   1
 Largest concise Abelian subgroup C1      NOp   1
                         Standard orientation:                         
 ---------------------------------------------------------------------
 Center     Atomic      Atomic             Coordinates (Angstroms)
 Number     Number       Type             X           Y           Z
 ---------------------------------------------------------------------
      1         14           0       -1.928703   -0.041942   -0.125180
      2          8           0       -2.798845    1.324488   -0.396983
      3          8           0       -2.980248   -1.308433   -0.113067
      4          8           0       -0.620054   -0.318897   -1.050831
      5         40           0        1.129819   -0.016758   -0.051814
      6          1           0       -3.584692    1.221584   -0.943910
      7          1           0       -2.597671   -2.148804   -0.389842
      8          8           0       -1.134845    0.205770    1.346567
      9          1           0       -1.290954    1.053021    1.781733
     10          8           0        1.557073   -1.465539    1.209808
     11          1           0        1.330656   -1.611480    2.133988
     12          8           0        1.295904    1.795530    0.724609
     13          1           0        1.947254    2.471288    0.505939
     14          8           0        2.520329   -0.119715   -1.418466
     15          1           0        3.289951   -0.633718   -1.675896
 ---------------------------------------------------------------------
 Rotational constants (GHZ):           1.7646289           0.5991629           0.5756463
 Basis read from rwf:  (5D, 7F)
 Pseudo-potential data read from rwf file.
 There are   178 symmetry adapted cartesian basis functions of A   symmetry.
 There are   168 symmetry adapted basis functions of A   symmetry.
   168 basis functions,   339 primitive gaussians,   178 cartesian basis functions
    44 alpha electrons       44 beta electrons
       nuclear repulsion energy       661.0043853405 Hartrees.
 NAtoms=   15 NActive=   15 NUniq=   15 SFac= 1.00D+00 NAtFMM=   60 NAOKFM=F Big=F
 Integral buffers will be    131072 words long.
 Raffenetti 2 integral format.
 Two-electron integral symmetry is turned on.
 One-electron integrals computed using PRISM.
   1 Symmetry operations used in ECPInt.
 ECPInt:  NShTT=    1770 NPrTT=   10201 LenC2=    1666 LenP2D=    6719.
 LDataN:  DoStor=T MaxTD1= 5 Len=  102
 NBasis=   168 RedAO= T EigKep=  8.98D-03  NBF=   168
 NBsUse=   168 1.00D-06 EigRej= -1.00D+00 NBFU=   168
 Defaulting to unpruned grid for atomic number  40.
 Initial guess from the checkpoint file:  "/localscratch/sarashs.33453152.0/Gau-24140.chk"
 B after Tr=     0.000000   -0.000000    0.000000
         Rot=    1.000000    0.000245    0.000418   -0.000326 Ang=   0.07 deg.
 ExpMin= 2.43D-02 ExpMax= 1.61D+04 ExpMxC= 2.43D+03 IAcc=3 IRadAn=         5 AccDes= 0.00D+00
 Harris functional with IExCor=  402 and IRadAn=       5 diagonalized for initial guess.
 HarFok:  IExCor=  402 AccDes= 0.00D+00 IRadAn=         5 IDoV= 1 UseB2=F ITyADJ=14
 ICtDFT=  3500011 ScaDFX=  1.000000  1.000000  1.000000  1.000000
 Defaulting to unpruned grid for atomic number  40.
 FoFCou: FMM=F IPFlag=           0 FMFlag=      100000 FMFlg1=           0
         NFxFlg=           0 DoJE=T BraDBF=F KetDBF=T FulRan=T
         wScrn=  0.000000 ICntrl=       500 IOpCl=  0 I1Cent=   200000004 NGrid=           0
         NMat0=    1 NMatS0=      1 NMatT0=    0 NMatD0=    1 NMtDS0=    0 NMtDT0=    0
 Petite list used in FoFCou.
 Requested convergence on RMS density matrix=1.00D-08 within 128 cycles.
 Requested convergence on MAX density matrix=1.00D-06.
 Requested convergence on             energy=1.00D-06.
 No special actions if energy rises.
 Defaulting to unpruned grid for atomic number  40.
 Defaulting to unpruned grid for atomic number  40.
 Defaulting to unpruned grid for atomic number  40.
 Defaulting to unpruned grid for atomic number  40.
 Defaulting to unpruned grid for atomic number  40.
 Defaulting to unpruned grid for atomic number  40.
 Defaulting to unpruned grid for atomic number  40.
 Defaulting to unpruned grid for atomic number  40.
 Defaulting to unpruned grid for atomic number  40.
 Defaulting to unpruned grid for atomic number  40.
 Defaulting to unpruned grid for atomic number  40.
 Defaulting to unpruned grid for atomic number  40.
 Defaulting to unpruned grid for atomic number  40.
 Defaulting to unpruned grid for atomic number  40.
 Defaulting to unpruned grid for atomic number  40.
 Defaulting to unpruned grid for atomic number  40.
 SCF Done:  E(RB3LYP) =  -866.688741991     A.U. after    9 cycles
            NFock=  9  Conv=0.80D-08     -V/T= 2.0445
   1 Symmetry operations used in ECPInt.
 ECPInt:  NShTT=    1770 NPrTT=   10201 LenC2=    1666 LenP2D=    6719.
 LDataN:  DoStor=T MaxTD1= 6 Len=  172
 Calling FoFJK, ICntrl=      2127 FMM=F ISym2X=0 I1Cent= 0 IOpClX= 0 NMat=1 NMatS=1 NMatT=0.
 Defaulting to unpruned grid for atomic number  40.
 Defaulting to unpruned grid for atomic number  40.
 Defaulting to unpruned grid for atomic number  40.
 Defaulting to unpruned grid for atomic number  40.
 Defaulting to unpruned grid for atomic number  40.
 Defaulting to unpruned grid for atomic number  40.
 Defaulting to unpruned grid for atomic number  40.
 Defaulting to unpruned grid for atomic number  40.
 Defaulting to unpruned grid for atomic number  40.
 Defaulting to unpruned grid for atomic number  40.
 Defaulting to unpruned grid for atomic number  40.
 Defaulting to unpruned grid for atomic number  40.
 Defaulting to unpruned grid for atomic number  40.
 Defaulting to unpruned grid for atomic number  40.
 Defaulting to unpruned grid for atomic number  40.
 Defaulting to unpruned grid for atomic number  40.
 ***** Axes restored to original set *****
 -------------------------------------------------------------------
 Center     Atomic                   Forces (Hartrees/Bohr)
 Number     Number              X              Y              Z
 -------------------------------------------------------------------
      1       14           0.001953596    0.001128762    0.003715329
      2        8           0.000018749   -0.000071021   -0.000205119
      3        8           0.000061297    0.000008978   -0.000242554
      4        8          -0.001237341   -0.001380364   -0.004737312
      5       40          -0.000795551   -0.000129373    0.001720543
      6        1          -0.000001876   -0.000022733    0.000030191
      7        1           0.000011361   -0.000038745    0.000056264
      8        8          -0.000136127   -0.000092445   -0.000660420
      9        1          -0.000218907   -0.000075306    0.000175118
     10        8          -0.000445334   -0.000071572    0.000652748
     11        1           0.000121795   -0.000098593   -0.000138139
     12        8          -0.000002977    0.000692560    0.000184301
     13        1          -0.000114425    0.000163802    0.000206780
     14        8           0.000767162    0.000031188   -0.000855228
     15        1           0.000018577   -0.000045136    0.000097498
 -------------------------------------------------------------------
 Cartesian Forces:  Max     0.004737312 RMS     0.001071332

 GradGradGradGradGradGradGradGradGradGradGradGradGradGradGradGradGradGrad
 Berny optimization.
 Using GEDIIS/GDIIS optimizer.
 FormGI is forming the generalized inverse of G from B-inverse, IUseBI=4.
 Internal  Forces:  Max     0.002878698 RMS     0.000677216
 Search for a local minimum.
 Step number   2 out of a maximum of   83
 All quantities printed in internal units (Hartrees-Bohrs-Radians)
 Mixed Optimization -- En-DIIS/RFO-DIIS
 Swapping is turned off.
 Update second derivatives using D2CorX and points    1    2
 DE= -1.00D-04 DEPred=-1.02D-04 R= 9.85D-01
 TightC=F SS=  1.41D+00  RLast= 4.87D-02 DXNew= 5.0454D-01 1.4614D-01
 Trust test= 9.85D-01 RLast= 4.87D-02 DXMaxT set to 3.00D-01
 ITU=  1  0
     Eigenvalues ---    0.00229   0.00230   0.00230   0.00555   0.03006
     Eigenvalues ---    0.03730   0.03782   0.04391   0.04803   0.07235
     Eigenvalues ---    0.07954   0.10775   0.12815   0.15040   0.15297
     Eigenvalues ---    0.15811   0.16000   0.16000   0.16000   0.16000
     Eigenvalues ---    0.16077   0.18335   0.18956   0.19477   0.19808
     Eigenvalues ---    0.21593   0.22570   0.24633   0.35334   0.37163
     Eigenvalues ---    0.43287   0.43902   0.54302   0.54625   0.54680
     Eigenvalues ---    0.54845   0.54991   0.553451000.000001000.00000
     Eigenvalues --- 1000.000001000.000001000.000001000.000001000.00000
     Eigenvalues --- 1000.000001000.000001000.000001000.000001000.00000
     Eigenvalues --- 1000.000001000.000001000.000001000.000001000.00000
     Eigenvalues --- 1000.000001000.000001000.000001000.000001000.00000
     Eigenvalues --- 1000.000001000.000001000.000001000.000001000.00000
     Eigenvalues --- 1000.000001000.000001000.000001000.000001000.00000
     Eigenvalues --- 1000.000001000.000001000.00000
 En-DIIS/RFO-DIIS/Sim-DIIS IScMMF=       -3 using points:     2    1
 RFO step:  Lambda=-3.31697415D-05.
 DidBck=F Rises=F RFO-DIIS coefs:    1.18679   -0.18679
 Iteration  1 RMS(Cart)=  0.00609286 RMS(Int)=  0.00001510
 Iteration  2 RMS(Cart)=  0.00002001 RMS(Int)=  0.00000505
 Iteration  3 RMS(Cart)=  0.00000000 RMS(Int)=  0.00000505
 Iteration  1 RMS(Cart)=  0.00000130 RMS(Int)=  0.00000111
 Iteration  2 RMS(Cart)=  0.00000092 RMS(Int)=  0.00000122
 Variable       Old X    -DE/DX   Delta X   Delta X   Delta X     New X
                                 (Linear)    (Quad)   (Total)
    R1        3.10408  -0.00006   0.00017  -0.00016   0.00000   3.10408
    R2        3.11082  -0.00003   0.00010  -0.00007   0.00002   3.11084
    R3        3.07398   0.00199  -0.00063   0.00063  -0.00001   3.07398
    R4        5.78163  -0.00191  -0.00455   0.00409  -0.00046   5.78116
    R5        3.19448  -0.00062  -0.00014  -0.00161  -0.00175   3.19273
    R6        1.81971  -0.00001   0.00000  -0.00002  -0.00002   1.81969
    R7        1.82160   0.00002  -0.00002   0.00004   0.00003   1.82162
    R8        3.85031   0.00224  -0.00465   0.00413  -0.00052   3.84978
    R9        3.71907   0.00038  -0.00021   0.00189   0.00168   3.72074
   R10        3.73899   0.00093  -0.00139   0.00495   0.00356   3.74255
   R11        3.68950   0.00109  -0.00091   0.00533   0.00441   3.69391
   R12        1.82393   0.00005  -0.00017   0.00010  -0.00006   1.82386
   R13        1.81912  -0.00014   0.00006  -0.00026  -0.00020   1.81892
   R14        1.82113  -0.00001  -0.00001  -0.00002  -0.00003   1.82111
   R15        1.81530   0.00001   0.00001   0.00002   0.00003   1.81533
    A1        1.87846  -0.00007  -0.00006  -0.00028  -0.00035   1.87811
    A2        2.06421  -0.00049  -0.00041  -0.00036  -0.00077   2.06344
    A3        2.12549   0.00005   0.00032   0.00001   0.00032   2.12581
    A4        1.84516   0.00025   0.00046   0.00167   0.00213   1.84729
    A5        1.96827  -0.00076  -0.00006  -0.00176  -0.00182   1.96645
    A6        2.27147   0.00005  -0.00037  -0.00009  -0.00047   2.27100
    A7        1.98921   0.00016   0.00057  -0.00009   0.00048   1.98969
    A8        1.71386   0.00109  -0.00042   0.00120   0.00077   1.71463
    A9        1.05693  -0.00056  -0.00016   0.00108   0.00092   1.05785
   A10        2.02349  -0.00004   0.00007  -0.00023  -0.00016   2.02333
   A11        1.99884   0.00003   0.00000   0.00018   0.00018   1.99902
   A12        1.96781  -0.00288  -0.00000   0.00000  -0.00000   1.96781
   A13        1.79911  -0.00069  -0.00092  -0.00380  -0.00472   1.79440
   A14        1.67183  -0.00062  -0.00089  -0.00104  -0.00194   1.66989
   A15        2.33888   0.00087   0.00067   0.00174   0.00241   2.34129
   A16        1.97317  -0.00007  -0.00006  -0.00009  -0.00016   1.97301
   A17        1.98267   0.00006  -0.00049  -0.00279  -0.00330   1.97937
   A18        1.83448  -0.00037   0.00032   0.00150   0.00182   1.83629
   A19        1.98723   0.00003  -0.00119  -0.00156  -0.00277   1.98446
   A20        1.82895   0.00018   0.00093   0.00220   0.00313   1.83207
   A21        1.83714   0.00016   0.00089   0.00173   0.00262   1.83976
   A22        2.03221   0.00002  -0.00065   0.00020  -0.00045   2.03176
   A23        2.31310   0.00027   0.00059   0.00159   0.00218   2.31528
   A24        2.22682   0.00052   0.00061   0.00313   0.00374   2.23055
   A25        2.47576  -0.00019  -0.00053  -0.00108  -0.00160   2.47416
    D1       -0.54745   0.00042   0.00058   0.00196   0.00254  -0.54491
    D2        1.70755  -0.00114   0.00009  -0.00111  -0.00102   1.70653
    D3        2.47322   0.00065  -0.00039  -0.00089  -0.00128   2.47194
    D4       -2.67960   0.00013  -0.00031   0.00130   0.00098  -2.67862
    D5        2.64482  -0.00033  -0.00058  -0.00110  -0.00169   2.64313
    D6        0.33659   0.00101   0.00007   0.00106   0.00112   0.33771
    D7       -0.36222  -0.00059   0.00042   0.00207   0.00249  -0.35973
    D8       -1.59810   0.00002   0.00028   0.00073   0.00101  -1.59709
    D9        2.61122  -0.00035  -0.00015  -0.00648  -0.00662   2.60460
   D10        0.58376  -0.00002   0.00159  -0.00366  -0.00207   0.58169
   D11       -1.47152  -0.00011   0.00084  -0.00619  -0.00534  -1.47686
   D12       -0.68134  -0.00006  -0.00132  -0.01006  -0.01137  -0.69271
   D13       -2.70881   0.00026   0.00043  -0.00723  -0.00681  -2.71562
   D14        1.51910   0.00018  -0.00032  -0.00976  -0.01009   1.50902
   D15        1.02415  -0.00030  -0.00048  -0.00930  -0.00978   1.01438
   D16       -1.00331   0.00002   0.00127  -0.00648  -0.00522  -1.00853
   D17       -3.05859  -0.00006   0.00052  -0.00901  -0.00849  -3.06708
   D18       -0.00515   0.00018   0.00144   0.00369   0.00513  -0.00003
   D19       -2.06463   0.00001   0.00090   0.00300   0.00389  -2.06074
   D20        2.13330   0.00019   0.00097   0.00439   0.00536   2.13866
   D21        2.05428   0.00010   0.00157   0.00290   0.00447   2.05875
   D22       -1.03515   0.00071  -0.00069  -0.00191  -0.00261  -1.03777
   D23       -1.54355  -0.00038  -0.00065   0.00012  -0.00053  -1.54408
   D24        0.75336  -0.00034  -0.00259  -0.00553  -0.00811   0.74525
   D25        2.75149  -0.00002  -0.00154  -0.00290  -0.00444   2.74705
   D26       -2.46451  -0.00072   0.00007  -0.00359  -0.00350  -2.46802
   D27       -2.04102   0.00033   0.00010  -0.00280  -0.00269  -2.04372
   D28        1.94989   0.00035   0.00184   0.00155   0.00339   1.95327
   D29       -0.04338   0.00002   0.00078  -0.00136  -0.00058  -0.04396
   D30       -2.15146  -0.00006   0.00007  -0.00274  -0.00267  -2.15413
   D31       -2.04510   0.00005  -0.00005  -0.00609  -0.00614  -2.05124
   D32        0.03871  -0.00011   0.00044  -0.00449  -0.00405   0.03467
   D33        2.13969   0.00008  -0.00006  -0.00443  -0.00449   2.13520
         Item               Value     Threshold  Converged?
 Maximum Force            0.001089     0.000450     NO 
 RMS     Force            0.000255     0.000300     YES
 Maximum Displacement     0.018271     0.001800     NO 
 RMS     Displacement     0.006095     0.001200     NO 
 Predicted change in Energy=-1.655266D-05
 GradGradGradGradGradGradGradGradGradGradGradGradGradGradGradGradGradGrad

                          Input orientation:                          
 ---------------------------------------------------------------------
 Center     Atomic      Atomic             Coordinates (Angstroms)
 Number     Number       Type             X           Y           Z
 ---------------------------------------------------------------------
      1         14           0       -1.897891   -0.039060   -0.128195
      2          8           0       -2.770213    1.332815   -0.363095
      3          8           0       -2.953983   -1.301443   -0.096722
      4          8           0       -0.620750   -0.314103   -1.097392
      5         40           0        1.161255   -0.028250   -0.152405
      6          1           0       -3.572978    1.236935   -0.886191
      7          1           0       -2.583618   -2.140660   -0.392973
      8          8           0       -1.058086    0.190627    1.319720
      9          1           0       -1.199925    1.032785    1.769340
     10          8           0        1.612887   -1.481346    1.097089
     11          1           0        1.414626   -1.626451    2.027737
     12          8           0        1.356970    1.781723    0.627310
     13          1           0        2.003436    2.457867    0.395784
     14          8           0        2.511981   -0.135733   -1.561293
     15          1           0        3.272138   -0.652806   -1.839873
 ---------------------------------------------------------------------
                    Distance matrix (angstroms):
                    1          2          3          4          5
     1  Si   0.000000
     2  O    1.642608   0.000000
     3  O    1.646188   2.654061   0.000000
     4  O    1.626678   2.805659   2.723996   0.000000
     5  Zr   3.059261   4.165732   4.308051   2.037217   0.000000
     6  H    2.237998   0.962940   2.729429   3.341553   4.955007
     7  H    2.226444   3.478611   0.963960   2.772250   4.306300
     8  O    1.689522   2.658540   2.797679   2.507678   2.672177
     9  H    2.288372   2.665164   3.465188   3.219892   3.223983
    10  O    3.988367   5.409547   4.723754   3.341757   1.968932
    11  H    4.259180   5.655634   4.868644   3.953662   2.715043
    12  O    3.805280   4.268028   5.349248   3.358342   1.980470
    13  H    4.661496   4.962798   6.241072   4.098749   2.681522
    14  O    4.637896   5.611940   5.777595   3.171911   1.954732
    15  H    5.480486   6.529438   6.497991   3.977509   2.773707
                    6          7          8          9         10
     6  H    0.000000
     7  H    3.553906   0.000000
     8  O    3.505066   3.270392   0.000000
     9  H    3.567198   4.081784   0.965146   0.000000
    10  O    6.181880   4.501737   3.158980   3.832060   0.000000
    11  H    6.447181   4.702149   3.149184   3.738205   0.962532
    12  O    5.185737   5.652814   2.973804   2.898767   3.306630
    13  H    5.850686   6.542909   3.920070   3.765506   4.020168
    14  O    6.274289   5.599092   4.599143   5.122186   3.112240
    15  H    7.164932   6.212658   5.426348   5.988905   3.473520
                   11         12         13         14         15
    11  H    0.000000
    12  O    3.685127   0.000000
    13  H    4.437524   0.963687   0.000000
    14  O    4.038262   3.130601   3.288696   0.000000
    15  H    4.399630   3.960024   4.035350   0.960631   0.000000
 Stoichiometry    H6O7SiZr
 Framework group  C1[X(H6O7SiZr)]
 Deg. of freedom    39
 Full point group                 C1      NOp   1
 Largest Abelian subgroup         C1      NOp   1
 Largest concise Abelian subgroup C1      NOp   1
                         Standard orientation:                         
 ---------------------------------------------------------------------
 Center     Atomic      Atomic             Coordinates (Angstroms)
 Number     Number       Type             X           Y           Z
 ---------------------------------------------------------------------
      1         14           0       -1.927882   -0.041561   -0.124841
      2          8           0       -2.798314    1.324558   -0.397292
      3          8           0       -2.978949   -1.308500   -0.117261
      4          8           0       -0.619637   -0.317822   -1.051263
      5         40           0        1.130430   -0.016934   -0.052771
      6          1           0       -3.583764    1.221194   -0.944684
      7          1           0       -2.595788   -2.148152   -0.395452
      8          8           0       -1.135149    0.202521    1.347057
      9          1           0       -1.294749    1.047279    1.785713
     10          8           0        1.548750   -1.458795    1.221096
     11          1           0        1.321878   -1.598013    2.146091
     12          8           0        1.293604    1.799555    0.719243
     13          1           0        1.944105    2.476943    0.503171
     14          8           0        2.525358   -0.128510   -1.417581
     15          1           0        3.296159   -0.644118   -1.668230
 ---------------------------------------------------------------------
 Rotational constants (GHZ):           1.7628679           0.5990630           0.5758637
 Basis read from rwf:  (5D, 7F)
 Pseudo-potential data read from rwf file.
 There are   178 symmetry adapted cartesian basis functions of A   symmetry.
 There are   168 symmetry adapted basis functions of A   symmetry.
   168 basis functions,   339 primitive gaussians,   178 cartesian basis functions
    44 alpha electrons       44 beta electrons
       nuclear repulsion energy       660.9615000867 Hartrees.
 NAtoms=   15 NActive=   15 NUniq=   15 SFac= 1.00D+00 NAtFMM=   60 NAOKFM=F Big=F
 Integral buffers will be    131072 words long.
 Raffenetti 2 integral format.
 Two-electron integral symmetry is turned on.
 One-electron integrals computed using PRISM.
   1 Symmetry operations used in ECPInt.
 ECPInt:  NShTT=    1770 NPrTT=   10201 LenC2=    1666 LenP2D=    6716.
 LDataN:  DoStor=T MaxTD1= 5 Len=  102
 NBasis=   168 RedAO= T EigKep=  8.97D-03  NBF=   168
 NBsUse=   168 1.00D-06 EigRej= -1.00D+00 NBFU=   168
 Defaulting to unpruned grid for atomic number  40.
 Initial guess from the checkpoint file:  "/localscratch/sarashs.33453152.0/Gau-24140.chk"
 B after Tr=     0.000000    0.000000   -0.000000
         Rot=    0.999999    0.001164    0.000460    0.000096 Ang=   0.14 deg.
 Requested convergence on RMS density matrix=1.00D-08 within 128 cycles.
 Requested convergence on MAX density matrix=1.00D-06.
 Requested convergence on             energy=1.00D-06.
 No special actions if energy rises.
 Defaulting to unpruned grid for atomic number  40.
 Defaulting to unpruned grid for atomic number  40.
 Defaulting to unpruned grid for atomic number  40.
 Defaulting to unpruned grid for atomic number  40.
 Defaulting to unpruned grid for atomic number  40.
 Defaulting to unpruned grid for atomic number  40.
 Defaulting to unpruned grid for atomic number  40.
 Defaulting to unpruned grid for atomic number  40.
 Defaulting to unpruned grid for atomic number  40.
 Defaulting to unpruned grid for atomic number  40.
 Defaulting to unpruned grid for atomic number  40.
 Defaulting to unpruned grid for atomic number  40.
 Defaulting to unpruned grid for atomic number  40.
 Defaulting to unpruned grid for atomic number  40.
 Defaulting to unpruned grid for atomic number  40.
 Defaulting to unpruned grid for atomic number  40.
 SCF Done:  E(RB3LYP) =  -866.688763710     A.U. after    9 cycles
            NFock=  9  Conv=0.46D-08     -V/T= 2.0445
   1 Symmetry operations used in ECPInt.
 ECPInt:  NShTT=    1770 NPrTT=   10201 LenC2=    1666 LenP2D=    6716.
 LDataN:  DoStor=T MaxTD1= 6 Len=  172
 Calling FoFJK, ICntrl=      2127 FMM=F ISym2X=0 I1Cent= 0 IOpClX= 0 NMat=1 NMatS=1 NMatT=0.
 Defaulting to unpruned grid for atomic number  40.
 Defaulting to unpruned grid for atomic number  40.
 Defaulting to unpruned grid for atomic number  40.
 Defaulting to unpruned grid for atomic number  40.
 Defaulting to unpruned grid for atomic number  40.
 Defaulting to unpruned grid for atomic number  40.
 Defaulting to unpruned grid for atomic number  40.
 Defaulting to unpruned grid for atomic number  40.
 Defaulting to unpruned grid for atomic number  40.
 Defaulting to unpruned grid for atomic number  40.
 Defaulting to unpruned grid for atomic number  40.
 Defaulting to unpruned grid for atomic number  40.
 Defaulting to unpruned grid for atomic number  40.
 Defaulting to unpruned grid for atomic number  40.
 Defaulting to unpruned grid for atomic number  40.
 Defaulting to unpruned grid for atomic number  40.
 ***** Axes restored to original set *****
 -------------------------------------------------------------------
 Center     Atomic                   Forces (Hartrees/Bohr)
 Number     Number              X              Y              Z
 -------------------------------------------------------------------
      1       14           0.001576462    0.000842756    0.003250939
      2        8           0.000094932   -0.000029667   -0.000045019
      3        8          -0.000030468   -0.000017917   -0.000159689
      4        8          -0.000798907   -0.001308444   -0.004708348
      5       40          -0.000011327    0.000300106    0.002010575
      6        1          -0.000001440   -0.000046966    0.000031183
      7        1           0.000021957    0.000001683    0.000069256
      8        8          -0.000189474    0.000161718   -0.000475409
      9        1          -0.000172830   -0.000035652    0.000200347
     10        8          -0.000276639    0.000300426   -0.000068032
     11        1           0.000002876   -0.000045318   -0.000100867
     12        8          -0.000088622   -0.000243651   -0.000218904
     13        1          -0.000115072    0.000092703    0.000140643
     14        8          -0.000033661    0.000093957   -0.000058479
     15        1           0.000022212   -0.000065734    0.000131803
 -------------------------------------------------------------------
 Cartesian Forces:  Max     0.004708348 RMS     0.000979773

 GradGradGradGradGradGradGradGradGradGradGradGradGradGradGradGradGradGrad
 Berny optimization.
 Using GEDIIS/GDIIS optimizer.
 FormGI is forming the generalized inverse of G from B-inverse, IUseBI=4.
 Internal  Forces:  Max     0.002764894 RMS     0.000622006
 Search for a local minimum.
 Step number   3 out of a maximum of   83
 All quantities printed in internal units (Hartrees-Bohrs-Radians)
 Mixed Optimization -- En-DIIS/RFO-DIIS
 Swapping is turned off.
 Update second derivatives using D2CorX and points    1    2    3
 DE= -2.17D-05 DEPred=-1.66D-05 R= 1.31D+00
 TightC=F SS=  1.41D+00  RLast= 3.17D-02 DXNew= 5.0454D-01 9.5197D-02
 Trust test= 1.31D+00 RLast= 3.17D-02 DXMaxT set to 3.00D-01
 ITU=  1  1  0
     Eigenvalues ---    0.00225   0.00230   0.00235   0.00586   0.02083
     Eigenvalues ---    0.03704   0.03778   0.04143   0.04734   0.06136
     Eigenvalues ---    0.08082   0.11090   0.12437   0.14856   0.15351
     Eigenvalues ---    0.15586   0.16000   0.16000   0.16000   0.16022
     Eigenvalues ---    0.16273   0.18110   0.18897   0.19442   0.20063
     Eigenvalues ---    0.21562   0.22954   0.28728   0.36314   0.36848
     Eigenvalues ---    0.43294   0.43955   0.54345   0.54629   0.54691
     Eigenvalues ---    0.54844   0.54952   0.553461000.000001000.00000
     Eigenvalues --- 1000.000001000.000001000.000001000.000001000.00000
     Eigenvalues --- 1000.000001000.000001000.000001000.000001000.00000
     Eigenvalues --- 1000.000001000.000001000.000001000.000001000.00000
     Eigenvalues --- 1000.000001000.000001000.000001000.000001000.00000
     Eigenvalues --- 1000.000001000.000001000.000001000.000001000.00000
     Eigenvalues --- 1000.000001000.000001000.000001000.000001000.00000
     Eigenvalues --- 1000.000001000.000001000.00000
 En-DIIS/RFO-DIIS/Sim-DIIS IScMMF=       -3 using points:     3    2    1
 RFO step:  Lambda=-2.58319027D-05.
 DidBck=F Rises=F RFO-DIIS coefs:    1.56910   -0.30294   -0.26616
 Iteration  1 RMS(Cart)=  0.00497434 RMS(Int)=  0.00002233
 Iteration  2 RMS(Cart)=  0.00002164 RMS(Int)=  0.00001277
 Iteration  3 RMS(Cart)=  0.00000000 RMS(Int)=  0.00001277
 Iteration  1 RMS(Cart)=  0.00000183 RMS(Int)=  0.00000156
 Iteration  2 RMS(Cart)=  0.00000130 RMS(Int)=  0.00000172
 Iteration  3 RMS(Cart)=  0.00000093 RMS(Int)=  0.00000198
 Variable       Old X    -DE/DX   Delta X   Delta X   Delta X     New X
                                 (Linear)    (Quad)   (Total)
    R1        3.10408  -0.00011   0.00024  -0.00045  -0.00021   3.10387
    R2        3.11084   0.00002   0.00015  -0.00002   0.00013   3.11097
    R3        3.07398   0.00220  -0.00091   0.00214   0.00123   3.07521
    R4        5.78116  -0.00174  -0.00675   0.00796   0.00122   5.78238
    R5        3.19273  -0.00040  -0.00119  -0.00136  -0.00255   3.19018
    R6        1.81969  -0.00001  -0.00001  -0.00003  -0.00004   1.81966
    R7        1.82162  -0.00001  -0.00001  -0.00002  -0.00003   1.82159
    R8        3.84978   0.00200  -0.00692   0.00720   0.00028   3.85006
    R9        3.72074  -0.00036   0.00065  -0.00208  -0.00143   3.71931
   R10        3.74255  -0.00019   0.00004  -0.00006  -0.00002   3.74253
   R11        3.69391  -0.00006   0.00121   0.00050   0.00171   3.69562
   R12        1.82386   0.00009  -0.00028   0.00033   0.00005   1.82391
   R13        1.81892  -0.00009  -0.00003  -0.00026  -0.00029   1.81863
   R14        1.82111  -0.00005  -0.00003  -0.00010  -0.00013   1.82097
   R15        1.81533   0.00001   0.00003   0.00003   0.00006   1.81538
    A1        1.87811  -0.00003  -0.00029  -0.00020  -0.00050   1.87761
    A2        2.06344  -0.00044  -0.00102  -0.00090  -0.00192   2.06152
    A3        2.12581  -0.00002   0.00064   0.00085   0.00148   2.12729
    A4        1.84729   0.00003   0.00187  -0.00092   0.00095   1.84824
    A5        1.96645  -0.00069  -0.00111  -0.00040  -0.00151   1.96494
    A6        2.27100   0.00010  -0.00080  -0.00080  -0.00161   2.26940
    A7        1.98969   0.00018   0.00109   0.00027   0.00136   1.99106
    A8        1.71463   0.00111  -0.00016   0.00232   0.00216   1.71679
    A9        1.05785  -0.00044   0.00029   0.00174   0.00203   1.05988
   A10        2.02333  -0.00008   0.00001  -0.00069  -0.00068   2.02265
   A11        1.99902  -0.00002   0.00011  -0.00013  -0.00002   1.99900
   A12        1.96781  -0.00276  -0.00000   0.00000  -0.00000   1.96781
   A13        1.79440  -0.00048  -0.00399  -0.00146  -0.00546   1.78893
   A14        1.66989  -0.00062  -0.00238  -0.00169  -0.00410   1.66579
   A15        2.34129   0.00083   0.00233   0.00115   0.00348   2.34476
   A16        1.97301   0.00002  -0.00018  -0.00123  -0.00144   1.97157
   A17        1.97937   0.00007  -0.00258  -0.00168  -0.00429   1.97508
   A18        1.83629  -0.00040   0.00149   0.00150   0.00299   1.83929
   A19        1.98446   0.00013  -0.00327   0.00034  -0.00298   1.98148
   A20        1.83207  -0.00003   0.00310   0.00044   0.00355   1.83562
   A21        1.83976   0.00016   0.00276   0.00117   0.00394   1.84370
   A22        2.03176   0.00008  -0.00117   0.00112  -0.00005   2.03171
   A23        2.31528   0.00008   0.00208   0.00029   0.00238   2.31766
   A24        2.23055   0.00036   0.00300   0.00262   0.00562   2.23618
   A25        2.47416  -0.00026  -0.00166  -0.00175  -0.00341   2.47075
    D1       -0.54491   0.00034   0.00227   0.00112   0.00339  -0.54152
    D2        1.70653  -0.00104  -0.00045  -0.00040  -0.00083   1.70570
    D3        2.47194   0.00063  -0.00128  -0.00014  -0.00143   2.47051
    D4       -2.67862   0.00013   0.00011   0.00142   0.00153  -2.67709
    D5        2.64313  -0.00022  -0.00179   0.00055  -0.00124   2.64189
    D6        0.33771   0.00096   0.00074   0.00226   0.00299   0.34070
    D7       -0.35973  -0.00053   0.00202   0.00178   0.00380  -0.35593
    D8       -1.59709  -0.00010   0.00097  -0.00057   0.00041  -1.59668
    D9        2.60460  -0.00026  -0.00399   0.00208  -0.00188   2.60271
   D10        0.58169  -0.00011   0.00109   0.00255   0.00364   0.58532
   D11       -1.47686  -0.00016  -0.00184   0.00198   0.00015  -1.47671
   D12       -0.69271   0.00008  -0.00835   0.00061  -0.00772  -0.70043
   D13       -2.71562   0.00023  -0.00327   0.00108  -0.00220  -2.71782
   D14        1.50902   0.00018  -0.00620   0.00051  -0.00569   1.50333
   D15        1.01438  -0.00005  -0.00625   0.00268  -0.00355   1.01083
   D16       -1.00853   0.00010  -0.00117   0.00315   0.00197  -1.00656
   D17       -3.06708   0.00005  -0.00410   0.00258  -0.00152  -3.06860
   D18       -0.00003   0.00014   0.00496   0.00299   0.00795   0.00792
   D19       -2.06074   0.00005   0.00349   0.00369   0.00718  -2.05356
   D20        2.13866   0.00014   0.00444   0.00267   0.00710   2.14577
   D21        2.05875   0.00008   0.00479   0.00444   0.00923   2.06798
   D22       -1.03777   0.00069  -0.00246   0.00958   0.00708  -1.03068
   D23       -1.54408  -0.00045  -0.00123   0.01032   0.00910  -1.53498
   D24        0.74525  -0.00021  -0.00830   0.00704  -0.00124   0.74401
   D25        2.74705   0.00003  -0.00472   0.00888   0.00415   2.75121
   D26       -2.46802  -0.00063  -0.00189   0.00072  -0.00115  -2.46917
   D27       -2.04372   0.00040  -0.00138   0.00002  -0.00134  -2.04506
   D28        1.95327   0.00018   0.00455   0.00309   0.00762   1.96089
   D29       -0.04396   0.00006   0.00078   0.00168   0.00246  -0.04151
   D30       -2.15413  -0.00008  -0.00142  -0.00707  -0.00848  -2.16261
[...]
 ! A11   A(1,3,7)              114.5153         -DE/DX =    0.0                 !
 ! A12   A(1,4,5)              112.7473         -DE/DX =   -0.0021              !
 ! A13   A(1,5,10)             102.248          -DE/DX =   -0.0002              !
 ! A14   A(1,5,12)              95.4129         -DE/DX =   -0.0003              !
 ! A15   A(1,5,14)             134.6519         -DE/DX =    0.0004              !
 ! A16   A(4,5,10)             113.0509         -DE/DX =    0.0001              !
 ! A17   A(4,5,12)             112.8513         -DE/DX =    0.0003              !
 ! A18   A(4,5,14)             105.6051         -DE/DX =   -0.0004              !
 ! A19   A(10,5,12)            113.6279         -DE/DX =    0.0001              !
 ! A20   A(10,5,14)            104.8564         -DE/DX =    0.0                 !
 ! A21   A(12,5,14)            105.8844         -DE/DX =    0.0                 !
 ! A22   A(1,8,9)              116.4614         -DE/DX =    0.0                 !
 ! A23   A(5,10,11)            132.3            -DE/DX =    0.0                 !
 ! A24   A(5,12,13)            129.1406         -DE/DX =    0.0                 !
 ! A25   A(5,14,15)            140.1688         -DE/DX =    0.0                 !
 ! D1    D(3,1,2,6)            -30.927          -DE/DX =    0.0002              !
 ! D2    D(4,1,2,6)             97.7036         -DE/DX =   -0.0008              !
 ! D3    D(5,1,2,6)            141.5422         -DE/DX =    0.0005              !
 ! D4    D(8,1,2,6)           -153.236          -DE/DX =    0.0                 !
 ! D5    D(2,1,3,7)            151.6674         -DE/DX =   -0.0002              !
 ! D6    D(4,1,3,7)             19.8532         -DE/DX =    0.0006              !
 ! D7    D(5,1,3,7)            -19.9634         -DE/DX =   -0.0005              !
 ! D8    D(8,1,3,7)            -91.2793         -DE/DX =    0.0                 !
 ! D9    D(2,1,5,10)           148.3222         -DE/DX =   -0.0002              !
 ! D10   D(2,1,5,12)            32.6935         -DE/DX =   -0.0001              !
 ! D11   D(2,1,5,14)           -85.9965         -DE/DX =   -0.0001              !
 ! D12   D(3,1,5,10)           -41.0829         -DE/DX =    0.0001              !
 ! D13   D(3,1,5,12)          -156.7116         -DE/DX =    0.0002              !
 ! D14   D(3,1,5,14)            84.5984         -DE/DX =    0.0002              !
 ! D15   D(8,1,5,10)            57.0597         -DE/DX =   -0.0001              !
 ! D16   D(8,1,5,12)           -58.569          -DE/DX =    0.0                 !
 ! D17   D(8,1,5,14)          -177.259          -DE/DX =    0.0                 !
 ! D18   D(2,1,8,9)              1.5227         -DE/DX =    0.0001              !
 ! D19   D(3,1,8,9)           -116.4863         -DE/DX =    0.0                 !
 ! D20   D(4,1,8,9)            124.1284         -DE/DX =    0.0001              !
 ! D21   D(5,1,8,9)            119.5441         -DE/DX =   -0.0001              !
 ! D22   D(1,5,10,11)          -55.9916         -DE/DX =    0.0004              !
 ! D23   D(4,5,10,11)          -84.7367         -DE/DX =   -0.0005              !
 ! D24   D(12,5,10,11)          45.5647         -DE/DX =    0.0                 !
 ! D25   D(14,5,10,11)         160.7229         -DE/DX =    0.0                 !
 ! D26   D(1,5,12,13)         -141.3895         -DE/DX =   -0.0004              !
 ! D27   D(4,5,12,13)         -116.8937         -DE/DX =    0.0004              !
 ! D28   D(10,5,12,13)         112.7054         -DE/DX =    0.0                 !
 ! D29   D(14,5,12,13)          -1.8427         -DE/DX =    0.0                 !
 ! D30   D(1,5,14,15)         -125.0302         -DE/DX =   -0.0001              !
 ! D31   D(4,5,14,15)         -119.888          -DE/DX =    0.0001              !
 ! D32   D(10,5,14,15)          -0.2392         -DE/DX =    0.0                 !
 ! D33   D(12,5,14,15)         120.1986         -DE/DX =    0.0                 !
 --------------------------------------------------------------------------------
 GradGradGradGradGradGradGradGradGradGradGradGradGradGradGradGradGradGrad

                          Input orientation:                          
 ---------------------------------------------------------------------
 Center     Atomic      Atomic             Coordinates (Angstroms)
 Number     Number       Type             X           Y           Z
 ---------------------------------------------------------------------
      1         14           0       -1.892643   -0.037420   -0.122943
      2          8           0       -2.769143    1.334359   -0.342771
      3          8           0       -2.947469   -1.301637   -0.103349
      4          8           0       -0.620479   -0.302570   -1.103966
      5         40           0        1.168599   -0.023376   -0.167624
      6          1           0       -3.574287    1.238899   -0.862317
      7          1           0       -2.575195   -2.137883   -0.405459
      8          8           0       -1.051472    0.179965    1.323280
      9          1           0       -1.211338    1.007364    1.793537
     10          8           0        1.611213   -1.466927    1.094768
     11          1           0        1.373618   -1.618046    2.015175
     12          8           0        1.358185    1.789275    0.602400
     13          1           0        1.990426    2.481276    0.380159
     14          8           0        2.523407   -0.152664   -1.572285
     15          1           0        3.292429   -0.677717   -1.809766
 ---------------------------------------------------------------------
                    Distance matrix (angstroms):
                    1          2          3          4          5
     1  Si   0.000000
     2  O    1.642667   0.000000
     3  O    1.646598   2.652847   0.000000
     4  O    1.628224   2.806370   2.722913   0.000000
     5  Zr   3.061600   4.168924   4.310463   2.038500   0.000000
     6  H    2.236871   0.962963   2.724565   3.340584   4.956904
     7  H    2.226575   3.478219   0.963932   2.770776   4.306239
     8  O    1.687123   2.656830   2.797359   2.511995   2.681950
     9  H    2.286623   2.664111   3.455982   3.234279   3.251565
    10  O    3.975339   5.394557   4.716396   3.342246   1.968090
    11  H    4.211696   5.607055   4.822867   3.928859   2.711017
    12  O    3.798792   4.258536   5.347006   3.347029   1.978531
    13  H    4.655660   4.948893   6.239152   4.095027   2.692350
    14  O    4.649234   5.633296   5.780000   3.182108   1.955836
    15  H    5.490021   6.553104   6.499035   3.993712   2.763232
                    6          7          8          9         10
     6  H    0.000000
     7  H    3.550994   0.000000
     8  O    3.501824   3.268438   0.000000
     9  H    3.562400   4.072869   0.965032   0.000000
    10  O    6.167746   4.497430   3.139166   3.818009   0.000000
    11  H    6.397176   4.660775   3.097196   3.691057   0.962516
    12  O    5.174706   5.648878   2.985966   2.938136   3.302923
    13  H    5.835519   6.542072   3.929205   3.797545   4.030232
    14  O    6.294630   5.594490   4.612451   5.159723   3.110073
    15  H    7.191861   6.207509   5.424120   6.008928   3.447558
                   11         12         13         14         15
    11  H    0.000000
    12  O    3.688632   0.000000
    13  H    4.456250   0.963320   0.000000
    14  O    4.042181   3.139765   3.321708   0.000000
    15  H    4.381350   3.955489   4.058352   0.960975   0.000000
 Stoichiometry    H6O7SiZr
 Framework group  C1[X(H6O7SiZr)]
 Deg. of freedom    39
 Full point group                 C1      NOp   1
 Largest Abelian subgroup         C1      NOp   1
 Largest concise Abelian subgroup C1      NOp   1
                         Standard orientation:                         
 ---------------------------------------------------------------------
 Center     Atomic      Atomic             Coordinates (Angstroms)
 Number     Number       Type             X           Y           Z
 ---------------------------------------------------------------------
      1         14           0       -1.926834   -0.043159   -0.125142
      2          8           0       -2.800091    1.320244   -0.402465
      3          8           0       -2.976368   -1.311921   -0.122762
      4          8           0       -0.617349   -0.319513   -1.052499
      5         40           0        1.133820   -0.015089   -0.054393
      6          1           0       -3.584585    1.211682   -0.950262
      7          1           0       -2.589442   -2.151584   -0.395563
      8          8           0       -1.141928    0.203927    1.347698
      9          1           0       -1.322928    1.038757    1.796681
     10          8           0        1.534339   -1.433850    1.249478
     11          1           0        1.262703   -1.569761    2.162812
     12          8           0        1.286565    1.811838    0.689643
     13          1           0        1.923878    2.502839    0.479083
     14          8           0        2.541360   -0.162722   -1.404330
     15          1           0        3.321002   -0.688177   -1.603147
 ---------------------------------------------------------------------
 Rotational constants (GHZ):           1.7647930           0.5984463           0.5753854

 **********************************************************************

            Population analysis using the SCF Density.

 **********************************************************************

 Orbital symmetries:
       Occupied  (A) (A) (A) (A) (A) (A) (A) (A) (A) (A) (A) (A)
                 (A) (A) (A) (A) (A) (A) (A) (A) (A) (A) (A) (A)
                 (A) (A) (A) (A) (A) (A) (A) (A) (A) (A) (A) (A)
                 (A) (A) (A) (A) (A) (A) (A) (A)
       Virtual   (A) (A) (A) (A) (A) (A) (A) (A) (A) (A) (A) (A)
                 (A) (A) (A) (A) (A) (A) (A) (A) (A) (A) (A) (A)
                 (A) (A) (A) (A) (A) (A) (A) (A) (A) (A) (A) (A)
                 (A) (A) (A) (A) (A) (A) (A) (A) (A) (A) (A) (A)
                 (A) (A) (A) (A) (A) (A) (A) (A) (A) (A) (A) (A)
                 (A) (A) (A) (A) (A) (A) (A) (A) (A) (A) (A) (A)
                 (A) (A) (A) (A) (A) (A) (A) (A) (A) (A) (A) (A)
                 (A) (A) (A) (A) (A) (A) (A) (A) (A) (A) (A) (A)
                 (A) (A) (A) (A) (A) (A) (A) (A) (A) (A) (A) (A)
                 (A) (A) (A) (A) (A) (A) (A) (A) (A) (A) (A) (A)
                 (A) (A) (A) (A)
 The electronic state is 1-A.
 Alpha  occ. eigenvalues --  -66.19646 -19.16215 -19.15307 -19.15242 -19.13561
 Alpha  occ. eigenvalues --  -19.13100 -19.13092 -19.12200  -5.33994  -3.69980
 Alpha  occ. eigenvalues --   -3.69922  -3.69863  -2.05676  -1.26363  -1.26270
 Alpha  occ. eigenvalues --   -1.25904  -1.03334  -1.00497  -0.99866  -0.95238
 Alpha  occ. eigenvalues --   -0.94461  -0.93980  -0.93008  -0.57761  -0.53027
 Alpha  occ. eigenvalues --   -0.52189  -0.48034  -0.47153  -0.46649  -0.43438
 Alpha  occ. eigenvalues --   -0.39570  -0.38921  -0.37774  -0.35983  -0.34831
 Alpha  occ. eigenvalues --   -0.34023  -0.33767  -0.33327  -0.32155  -0.31704
 Alpha  occ. eigenvalues --   -0.30664  -0.30534  -0.30087  -0.29664
 Alpha virt. eigenvalues --   -0.01607  -0.00916  -0.00116   0.00547   0.01570
 Alpha virt. eigenvalues --    0.02212   0.02981   0.03246   0.04660   0.08403
 Alpha virt. eigenvalues --    0.09416   0.11909   0.14560   0.15312   0.16152
 Alpha virt. eigenvalues --    0.17068   0.17935   0.18971   0.19623   0.23478
 Alpha virt. eigenvalues --    0.23781   0.24590   0.25062   0.26476   0.28353
 Alpha virt. eigenvalues --    0.30528   0.32008   0.33679   0.38310   0.39139
 Alpha virt. eigenvalues --    0.41485   0.56277   0.63700   0.73177   0.78952
 Alpha virt. eigenvalues --    0.80378   0.84355   0.86376   0.87289   0.89142
 Alpha virt. eigenvalues --    0.90756   0.91490   0.92851   0.95240   0.95634
 Alpha virt. eigenvalues --    0.97419   0.98387   1.00267   1.01904   1.04195
 Alpha virt. eigenvalues --    1.07659   1.07822   1.08527   1.09810   1.12530
 Alpha virt. eigenvalues --    1.14652   1.16185   1.19131   1.19857   1.21267
 Alpha virt. eigenvalues --    1.23576   1.25590   1.27715   1.37781   1.47364
 Alpha virt. eigenvalues --    1.48421   1.50684   1.52355   1.53175   1.56578
 Alpha virt. eigenvalues --    1.57654   1.58325   1.60460   1.60958   1.63081
 Alpha virt. eigenvalues --    1.63746   1.64447   1.67465   1.68677   1.70823
 Alpha virt. eigenvalues --    1.73164   1.75374   1.80128   1.80307   1.81625
 Alpha virt. eigenvalues --    1.82714   1.83797   1.85617   1.86879   1.88403
 Alpha virt. eigenvalues --    1.91219   1.92360   2.01186   2.08552   2.13594
 Alpha virt. eigenvalues --    2.35481   2.35793   2.36432   2.37601   2.38494
 Alpha virt. eigenvalues --    2.39588   2.43445   2.56244   2.59548   2.62408
 Alpha virt. eigenvalues --    2.62544   2.63897   2.64262   2.64407   2.64822
 Alpha virt. eigenvalues --    2.65045   2.65368   2.65949   2.66596   2.72550
 Alpha virt. eigenvalues --    2.77493   2.82135   3.40833   3.42207   3.43000
 Alpha virt. eigenvalues --    3.44075   3.45499   3.46671   4.20295
          Condensed to atoms (all electrons):
               1          2          3          4          5          6
     1  Si  11.558358   0.388096   0.394921   0.343247  -0.092740  -0.021939
     2  O    0.388096   7.951719  -0.020376  -0.010624   0.004661   0.304171
     3  O    0.394921  -0.020376   7.944969  -0.017141  -0.000529  -0.000990
     4  O    0.343247  -0.010624  -0.017141   8.273961   0.188552  -0.000290
     5  Zr  -0.092740   0.004661  -0.000529   0.188552   9.781776  -0.000942
     6  H   -0.021939   0.304171  -0.000990  -0.000290  -0.000942   0.380041
     7  H   -0.018170   0.000387   0.301718   0.001295  -0.002891  -0.000045
     8  O    0.265025  -0.018237  -0.012837  -0.038952   0.103250   0.000617
     9  H   -0.010224   0.000847  -0.000237   0.000958  -0.010548   0.000012
    10  O   -0.006333  -0.000000   0.000001   0.000264   0.226005  -0.000000
    11  H    0.000125  -0.000000   0.000000  -0.000096  -0.017054   0.000000
    12  O   -0.007529   0.000003  -0.000000   0.000366   0.224988   0.000000
    13  H    0.000370  -0.000001   0.000000  -0.000023  -0.016744  -0.000000
    14  O   -0.000266   0.000000  -0.000000   0.000759   0.210329   0.000000
    15  H   -0.000013   0.000000   0.000000  -0.000054  -0.014456  -0.000000
               7          8          9         10         11         12
     1  Si  -0.018170   0.265025  -0.010224  -0.006333   0.000125  -0.007529
     2  O    0.000387  -0.018237   0.000847  -0.000000  -0.000000   0.000003
     3  O    0.301718  -0.012837  -0.000237   0.000001   0.000000  -0.000000
     4  O    0.001295  -0.038952   0.000958   0.000264  -0.000096   0.000366
     5  Zr  -0.002891   0.103250  -0.010548   0.226005  -0.017054   0.224988
     6  H   -0.000045   0.000617   0.000012  -0.000000   0.000000   0.000000
     7  H    0.382960  -0.000235   0.000054  -0.000004  -0.000001   0.000000
     8  O   -0.000235   8.047619   0.298194  -0.003249  -0.000535  -0.004701
     9  H    0.000054   0.298194   0.364757  -0.000068  -0.000022   0.001060
    10  O   -0.000004  -0.003249  -0.000068   8.176278   0.295206   0.000775
    11  H   -0.000001  -0.000535  -0.000022   0.295206   0.391320  -0.000319
    12  O    0.000000  -0.004701   0.001060   0.000775  -0.000319   8.189595
    13  H    0.000000   0.000164  -0.000044  -0.000060   0.000000   0.292005
    14  O   -0.000000  -0.000032   0.000003   0.000914   0.000015   0.000633
    15  H    0.000000  -0.000001  -0.000000  -0.000562   0.000001  -0.000099
              13         14         15
     1  Si   0.000370  -0.000266  -0.000013
     2  O   -0.000001   0.000000   0.000000
     3  O    0.000000  -0.000000   0.000000
     4  O   -0.000023   0.000759  -0.000054
     5  Zr  -0.016744   0.210329  -0.014456
     6  H   -0.000000   0.000000  -0.000000
     7  H    0.000000  -0.000000   0.000000
     8  O    0.000164  -0.000032  -0.000001
     9  H   -0.000044   0.000003  -0.000000
    10  O   -0.000060   0.000914  -0.000562
    11  H    0.000000   0.000015   0.000001
    12  O    0.292005   0.000633  -0.000099
    13  H    0.397450  -0.001283  -0.000002
    14  O   -0.001283   8.181800   0.298380
    15  H   -0.000002   0.298380   0.383647
 Mulliken charges:
               1
     1  Si   1.207072
     2  O   -0.600646
     3  O   -0.589500
     4  O   -0.742222
     5  Zr   1.416342
     6  H    0.339365
     7  H    0.334930
     8  O   -0.636090
     9  H    0.355256
    10  O   -0.689167
    11  H    0.331359
    12  O   -0.696776
    13  H    0.328170
    14  O   -0.691253
    15  H    0.333160
 Sum of Mulliken charges =  -0.00000
 Mulliken charges with hydrogens summed into heavy atoms:
               1
     1  Si   1.207072
     2  O   -0.261281
     3  O   -0.254570
     4  O   -0.742222
     5  Zr   1.416342
     8  O   -0.280834
    10  O   -0.357809
    12  O   -0.368606
    14  O   -0.358092
 Electronic spatial extent (au):  <R**2>=           1913.5149
 Charge=              0.0000 electrons
 Dipole moment (field-independent basis, Debye):
    X=              0.1865    Y=             -0.1208    Z=              0.5490  Tot=              0.5922
 Quadrupole moment (field-independent basis, Debye-Ang):
   XX=            -65.2005   YY=            -69.0921   ZZ=            -71.7407
   XY=              0.8305   XZ=              1.6464   YZ=              1.5095
 Traceless Quadrupole moment (field-independent basis, Debye-Ang):
   XX=              3.4773   YY=             -0.4143   ZZ=             -3.0630
   XY=              0.8305   XZ=              1.6464   YZ=              1.5095
 Octapole moment (field-independent basis, Debye-Ang**2):
  XXX=             41.2542  YYY=             -3.1694  ZZZ=             19.2954  XYY=             10.6515
  XXY=             12.2714  XXZ=            -27.8855  XZZ=              5.1457  YZZ=             -3.6490
  YYZ=             -2.0995  XYZ=              3.0252
 Hexadecapole moment (field-independent basis, Debye-Ang**3):
 XXXX=          -1378.7895 YYYY=           -366.7439 ZZZZ=           -319.3482 XXXY=            -75.0348
 XXXZ=             18.7665 YYYX=             77.8436 YYYZ=             10.0056 ZZZX=              7.2925
 ZZZY=            -11.9875 XXYY=           -288.0076 XXZZ=           -278.7545 YYZZ=           -111.7427
 XXYZ=             22.3116 YYXZ=              1.8024 ZZXY=            -33.6666
 N-N= 6.609411355674D+02 E-N=-3.358288459635D+03  KE= 8.297837134101D+02
 1\1\GINC-GRA600\FOpt\RB3LYP\Gen\H6O7Si1Zr1\SARASHS\24-Jun-2020\0\\#n B
 3LYP/GEN PSEUDO=READ Opt(modredundant)\\Title\\0,1\Si,-1.8926433244,-0
 .0374202956,-0.1229425471\O,-2.7691428177,1.3343593443,-0.3427707632\O
 ,-2.9474689011,-1.3016369861,-0.103348518\O,-0.6204785043,-0.302569518
 8,-1.1039656874\Zr,1.1685985415,-0.0233763683,-0.1676235508\H,-3.57428
 6951,1.2388986517,-0.8623170159\H,-2.5751946616,-2.1378826539,-0.40545
 91134\O,-1.0514721328,0.1799653895,1.3232801679\H,-1.2113384577,1.0073
 643758,1.7935366806\O,1.6112131806,-1.4669266607,1.0947681633\H,1.3736
 180614,-1.6180457981,2.0151748334\O,1.3581846281,1.7892754087,0.602399
 7388\H,1.9904259573,2.4812757835,0.3801591842\O,2.5234067902,-0.152663
 8641,-1.5722850886\H,3.2924285916,-0.6777168081,-1.8097664837\\Version
 =ES64L-G16RevB.01\State=1-A\HF=-866.6887934\RMSD=3.862e-09\RMSF=6.906e
 -04\Dipole=0.0812581,-0.0516985,0.2121654\Quadrupole=2.6770887,-0.3538
 097,-2.3232789,0.6263261,1.0536094,1.1287934\PG=C01 [X(H6O7Si1Zr1)]\\@


 SCIENCE AT ITS BEST PROVIDES US WITH BETTER QUESTIONS, 
 NOT ABSOLUTE ANSWERS

                                    -- NORMAN COUSINS, 1976
 Job cpu time:       0 days  0 hours 23 minutes 21.5 seconds.
 Elapsed time:       0 days  0 hours  1 minutes 31.2 seconds.
 File lengths (MBytes):  RWF=     23 Int=      0 D2E=      0 Chk=      3 Scr=      1
 Normal termination of Gaussian 16 at Wed Jun 24 13:52:00 2020.
