15
	Energy: -543854.4718975
Si        -1.90698       -0.04093       -0.13187
O         -2.77661        1.33183       -0.36828
O         -2.96472       -1.30138       -0.09409
O         -0.62539       -0.32160       -1.09659
Zr         1.41048       -0.12864       -0.94431
H         -3.57833        1.23701       -0.89318
H         -2.59505       -2.14280       -0.38501
O         -1.07346        0.19403        1.32035
H         -1.20745        1.04108        1.76425
O          2.25041       -1.59187        0.07012
H          2.42729       -1.71209        1.00853
O          2.00220        1.68332       -0.39924
H          2.53927        2.30129       -0.90760
O          2.07802       -0.35112       -2.76828
H          2.63243       -0.92103       -3.30733
