 Entering Gaussian System, Link 0=g16
 Initial command:
 /opt/software/gaussian/g16.b01/l1.exe "/localscratch/sarashs.33453153.0/Gau-13136.inp" -scrdir="/localscratch/sarashs.33453153.0/"
 Entering Link 1 = /opt/software/gaussian/g16.b01/l1.exe PID=     13139.
  
 Copyright (c) 1988-2017, Gaussian, Inc.  All Rights Reserved.
  
 This is part of the Gaussian(R) 16 program.  It is based on
 the Gaussian(R) 09 system (copyright 2009, Gaussian, Inc.),
 the Gaussian(R) 03 system (copyright 2003, Gaussian, Inc.),
 the Gaussian(R) 98 system (copyright 1998, Gaussian, Inc.),
 the Gaussian(R) 94 system (copyright 1995, Gaussian, Inc.),
 the Gaussian 92(TM) system (copyright 1992, Gaussian, Inc.),
 the Gaussian 90(TM) system (copyright 1990, Gaussian, Inc.),
 the Gaussian 88(TM) system (copyright 1988, Gaussian, Inc.),
 the Gaussian 86(TM) system (copyright 1986, Carnegie Mellon
 University), and the Gaussian 82(TM) system (copyright 1983,
 Carnegie Mellon University). Gaussian is a federally registered
 trademark of Gaussian, Inc.
  
 This software contains proprietary and confidential information,
 including trade secrets, belonging to Gaussian, Inc.
  
 This software is provided under written license and may be
 used, copied, transmitted, or stored only in accord with that
 written license.
  
 The following legend is applicable only to US Government
 contracts under FAR:
  
                    RESTRICTED RIGHTS LEGEND
  
 Use, reproduction and disclosure by the US Government is
 subject to restrictions as set forth in subparagraphs (a)
 and (c) of the Commercial Computer Software - Restricted
 Rights clause in FAR 52.227-19.
  
 Gaussian, Inc.
 340 Quinnipiac St., Bldg. 40, Wallingford CT 06492
  
  
 ---------------------------------------------------------------
 Warning -- This program may not be used in any manner that
 competes with the business of Gaussian, Inc. or will provide
 assistance to any competitor of Gaussian, Inc.  The licensee
 of this program is prohibited from giving any competitor of
 Gaussian, Inc. access to this program.  By using this program,
 the user acknowledges that Gaussian, Inc. is engaged in the
 business of creating and licensing software in the field of
 computational chemistry and represents and warrants to the
 licensee that it is not a competitor of Gaussian, Inc. and that
 it will not use this program in any manner prohibited above.
 ---------------------------------------------------------------
  

 Cite this work as:
 Gaussian 16, Revision B.01,
 M. J. Frisch, G. W. Trucks, H. B. Schlegel, G. E. Scuseria, 
 M. A. Robb, J. R. Cheeseman, G. Scalmani, V. Barone, 
 G. A. Petersson, H. Nakatsuji, X. Li, M. Caricato, A. V. Marenich, 
 J. Bloino, B. G. Janesko, R. Gomperts, B. Mennucci, H. P. Hratchian, 
 J. V. Ortiz, A. F. Izmaylov, J. L. Sonnenberg, D. Williams-Young, 
 F. Ding, F. Lipparini, F. Egidi, J. Goings, B. Peng, A. Petrone, 
 T. Henderson, D. Ranasinghe, V. G. Zakrzewski, J. Gao, N. Rega, 
 G. Zheng, W. Liang, M. Hada, M. Ehara, K. Toyota, R. Fukuda, 
 J. Hasegawa, M. Ishida, T. Nakajima, Y. Honda, O. Kitao, H. Nakai, 
 T. Vreven, K. Throssell, J. A. Montgomery, Jr., J. E. Peralta, 
 F. Ogliaro, M. J. Bearpark, J. J. Heyd, E. N. Brothers, K. N. Kudin, 
 V. N. Staroverov, T. A. Keith, R. Kobayashi, J. Normand, 
 K. Raghavachari, A. P. Rendell, J. C. Burant, S. S. Iyengar, 
 J. Tomasi, M. Cossi, J. M. Millam, M. Klene, C. Adamo, R. Cammi, 
 J. W. Ochterski, R. L. Martin, K. Morokuma, O. Farkas, 
 J. B. Foresman, and D. J. Fox, Gaussian, Inc., Wallingford CT, 2016.
 
 ******************************************
 Gaussian 16:  ES64L-G16RevB.01 20-Dec-2017
                24-Jun-2020 
 ******************************************
 %NProcShared=16
 Will use up to   16 processors via shared memory.
 ------------------------------------------
 #n B3LYP/GEN PSEUDO=READ Opt(modredundant)
 ------------------------------------------
 1/18=120,19=15,26=3,38=1/1,3;
 2/9=110,12=2,17=6,18=5,40=1/2;
 3/5=7,11=2,16=1,17=8,25=1,30=1,71=1,74=-5/1,2,3;
 4//1;
 5/5=2,38=5/2;
 6/7=2,8=2,9=2,10=2,28=1/1;
 7//1,2,3,16;
 1/18=20,19=15,26=3/3(2);
 2/9=110/2;
 99//99;
 2/9=110/2;
 3/5=7,6=1,11=2,16=1,17=8,25=1,30=1,71=1,74=-5,82=7/1,2,3;
 4/5=5,16=3,69=1/1;
 5/5=2,38=5/2;
 7//1,2,3,16;
 1/18=20,19=15,26=3/3(-5);
 2/9=110/2;
 6/7=2,8=2,9=2,10=2,19=2,28=1/1;
 99/9=1/99;
 -----
 Title
 -----
 Symbolic Z-matrix:
 Charge =  0 Multiplicity = 1
 Si                   -1.90698  -0.04093  -0.13187 
 O                    -2.77661   1.33183  -0.36828 
 O                    -2.96472  -1.30138  -0.09409 
 O                    -0.62539  -0.3216   -1.09659 
 Zr                    1.0522   -0.00836   0.04042 
 H                    -3.57833   1.23701  -0.89318 
 H                    -2.59505  -2.1428   -0.38501 
 O                    -1.07346   0.19403   1.32035 
 H                    -1.20745   1.04108   1.76425 
 O                     1.41157  -1.47346   1.30529 
 H                     1.11745  -1.63858   2.20673 
 O                     1.14542   1.8015    0.84426 
 H                     1.80728   2.48215   0.67865 
 O                     2.54127  -0.07708  -1.22446 
 H                     3.3346   -0.57675  -1.43351 
 
 The following ModRedundant input section has been read:
 A       1       4       5 F                                                   
 

 GradGradGradGradGradGradGradGradGradGradGradGradGradGradGradGradGradGrad
 Berny optimization.
 Initialization pass.
                           ----------------------------
                           !    Initial Parameters    !
                           ! (Angstroms and Degrees)  !
 --------------------------                            --------------------------
 ! Name  Definition              Value          Derivative Info.                !
 --------------------------------------------------------------------------------
 ! R1    R(1,2)                  1.6421         estimate D2E/DX2                !
 ! R2    R(1,3)                  1.6459         estimate D2E/DX2                !
 ! R3    R(1,4)                  1.6285         estimate D2E/DX2                !
 ! R4    R(1,5)                  2.9644         estimate D2E/DX2                !
 ! R5    R(1,8)                  1.6908         estimate D2E/DX2                !
 ! R6    R(2,6)                  0.9629         estimate D2E/DX2                !
 ! R7    R(3,7)                  0.964          estimate D2E/DX2                !
 ! R8    R(4,5)                  2.0507         estimate D2E/DX2                !
 ! R9    R(5,10)                 1.9686         estimate D2E/DX2                !
 ! R10   R(5,12)                 1.9825         estimate D2E/DX2                !
 ! R11   R(5,14)                 1.955          estimate D2E/DX2                !
 ! R12   R(8,9)                  0.9657         estimate D2E/DX2                !
 ! R13   R(10,11)                0.9625         estimate D2E/DX2                !
 ! R14   R(12,13)                0.9637         estimate D2E/DX2                !
 ! R15   R(14,15)                0.9606         estimate D2E/DX2                !
 ! A1    A(2,1,3)              107.6477         estimate D2E/DX2                !
 ! A2    A(2,1,4)              118.3958         estimate D2E/DX2                !
 ! A3    A(2,1,5)              121.8588         estimate D2E/DX2                !
 ! A4    A(2,1,8)              105.5776         estimate D2E/DX2                !
 ! A5    A(3,1,4)              112.7909         estimate D2E/DX2                !
 ! A6    A(3,1,5)              130.4367         estimate D2E/DX2                !
 ! A7    A(3,1,8)              113.7977         estimate D2E/DX2                !
 ! A8    A(4,1,8)               98.3257         estimate D2E/DX2                !
 ! A9    A(5,1,8)               57.0746         estimate D2E/DX2                !
 ! A10   A(1,2,6)              115.9167         estimate D2E/DX2                !
 ! A11   A(1,3,7)              114.5237         estimate D2E/DX2                !
 ! A12   A(1,4,5)              106.7993         Frozen                          !
 ! A13   A(1,5,10)             102.204          estimate D2E/DX2                !
 ! A14   A(1,5,12)              94.6193         estimate D2E/DX2                !
 ! A15   A(1,5,14)             136.2492         estimate D2E/DX2                !
 ! A16   A(4,5,10)             113.0729         estimate D2E/DX2                !
 ! A17   A(4,5,12)             113.7486         estimate D2E/DX2                !
 ! A18   A(4,5,14)             105.0108         estimate D2E/DX2                !
 ! A19   A(10,5,12)            114.2238         estimate D2E/DX2                !
 ! A20   A(10,5,14)            104.5072         estimate D2E/DX2                !
 ! A21   A(12,5,14)            104.9875         estimate D2E/DX2                !
 ! A22   A(1,8,9)              116.6352         estimate D2E/DX2                !
 ! A23   A(5,10,11)            132.3497         estimate D2E/DX2                !
 ! A24   A(5,12,13)            127.3996         estimate D2E/DX2                !
 ! A25   A(5,14,15)            142.0118         estimate D2E/DX2                !
 ! D1    D(3,1,2,6)            -31.5445         estimate D2E/DX2                !
 ! D2    D(4,1,2,6)             97.8074         estimate D2E/DX2                !
 ! D3    D(5,1,2,6)            145.9801         estimate D2E/DX2                !
 ! D4    D(8,1,2,6)           -153.4334         estimate D2E/DX2                !
 ! D5    D(2,1,3,7)            151.7162         estimate D2E/DX2                !
 ! D6    D(4,1,3,7)             19.2636         estimate D2E/DX2                !
 ! D7    D(5,1,3,7)            -25.5213         estimate D2E/DX2                !
 ! D8    D(8,1,3,7)            -91.6497         estimate D2E/DX2                !
 ! D9    D(2,1,5,10)           147.446          estimate D2E/DX2                !
 ! D10   D(2,1,5,12)            31.4293         estimate D2E/DX2                !
 ! D11   D(2,1,5,14)           -85.9311         estimate D2E/DX2                !
 ! D12   D(3,1,5,10)           -35.6538         estimate D2E/DX2                !
 ! D13   D(3,1,5,12)          -151.6704         estimate D2E/DX2                !
 ! D14   D(3,1,5,14)            90.9691         estimate D2E/DX2                !
 ! D15   D(8,1,5,10)            58.9214         estimate D2E/DX2                !
 ! D16   D(8,1,5,12)           -57.0953         estimate D2E/DX2                !
 ! D17   D(8,1,5,14)          -174.4558         estimate D2E/DX2                !
 ! D18   D(2,1,8,9)             -0.7356         estimate D2E/DX2                !
 ! D19   D(3,1,8,9)           -118.5698         estimate D2E/DX2                !
 ! D20   D(4,1,8,9)            121.931          estimate D2E/DX2                !
 ! D21   D(5,1,8,9)            117.4468         estimate D2E/DX2                !
 ! D22   D(1,5,10,11)          -56.859          estimate D2E/DX2                !
 ! D23   D(4,5,10,11)          -88.238          estimate D2E/DX2                !
 ! D24   D(12,5,10,11)          43.9573         estimate D2E/DX2                !
 ! D25   D(14,5,10,11)         158.1203         estimate D2E/DX2                !
 ! D26   D(1,5,12,13)         -143.2456         estimate D2E/DX2                !
 ! D27   D(4,5,12,13)         -116.9743         estimate D2E/DX2                !
 ! D28   D(10,5,12,13)         111.1549         estimate D2E/DX2                !
 ! D29   D(14,5,12,13)          -2.7244         estimate D2E/DX2                !
 ! D30   D(1,5,14,15)         -123.7954         estimate D2E/DX2                !
 ! D31   D(4,5,14,15)         -117.16           estimate D2E/DX2                !
 ! D32   D(10,5,14,15)           2.0816         estimate D2E/DX2                !
 ! D33   D(12,5,14,15)         122.6132         estimate D2E/DX2                !
 --------------------------------------------------------------------------------
 Trust Radius=3.00D-01 FncErr=1.00D-07 GrdErr=1.00D-06 EigMax=2.50D+02 EigMin=1.00D-04
 Number of steps in this run=     83 maximum allowed number of steps=    100.
 GradGradGradGradGradGradGradGradGradGradGradGradGradGradGradGradGradGrad

                          Input orientation:                          
 ---------------------------------------------------------------------
 Center     Atomic      Atomic             Coordinates (Angstroms)
 Number     Number       Type             X           Y           Z
 ---------------------------------------------------------------------
      1         14           0       -1.906980   -0.040930   -0.131870
      2          8           0       -2.776610    1.331830   -0.368280
      3          8           0       -2.964720   -1.301380   -0.094090
      4          8           0       -0.625390   -0.321600   -1.096590
      5         40           0        1.052200   -0.008360    0.040420
      6          1           0       -3.578330    1.237010   -0.893180
      7          1           0       -2.595050   -2.142800   -0.385010
      8          8           0       -1.073460    0.194030    1.320350
      9          1           0       -1.207450    1.041080    1.764250
     10          8           0        1.411570   -1.473460    1.305290
     11          1           0        1.117450   -1.638580    2.206730
     12          8           0        1.145420    1.801500    0.844260
     13          1           0        1.807280    2.482150    0.678650
     14          8           0        2.541270   -0.077080   -1.224460
     15          1           0        3.334600   -0.576750   -1.433510
 ---------------------------------------------------------------------
                    Distance matrix (angstroms):
                    1          2          3          4          5
     1  Si   0.000000
     2  O    1.642138   0.000000
     3  O    1.645897   2.654121   0.000000
     4  O    1.628476   2.809273   2.727167   0.000000
     5  Zr   2.964370   4.077123   4.222042   2.050663   0.000000
     6  H    2.237439   0.962946   2.731023   3.345220   4.885117
     7  H    2.226068   3.479411   0.963991   2.775370   4.247265
     8  O    1.690830   2.654577   2.795310   2.511621   2.489501
     9  H    2.292457   2.663547   3.468219   3.221816   3.029675
    10  O    3.889774   5.311435   4.597803   3.353359   1.968644
    11  H    4.143514   5.533328   4.698041   3.960284   2.711969
    12  O    3.696556   4.131968   5.234655   3.377902   1.982534
    13  H    4.562741   4.840594   6.138747   4.114654   2.679575
    14  O    4.580610   5.567578   5.752614   3.178660   1.954987
    15  H    5.427295   6.490322   6.480784   3.982479   2.775768
                    6          7          8          9         10
     6  H    0.000000
     7  H    3.556430   0.000000
     8  O    3.501699   3.268679   0.000000
     9  H    3.566706   4.084341   0.965657   0.000000
    10  O    6.089254   4.399788   2.992678   3.659620   0.000000
    11  H    6.318925   4.555657   2.990688   3.575126   0.962479
    12  O    5.064698   5.573125   2.781016   2.638298   3.317943
    13  H    5.746809   6.473179   3.734426   3.513375   4.024440
    14  O    6.267861   5.599434   4.428976   4.922964   3.102537
    15  H    7.167307   6.221946   5.254411   5.785608   3.464557
                   11         12         13         14         15
    11  H    0.000000
    12  O    3.700170   0.000000
    13  H    4.448742   0.963727   0.000000
    14  O    4.029716   3.123630   3.272648   0.000000
    15  H    4.392560   3.954342   4.018805   0.960596   0.000000
 Stoichiometry    H6O7SiZr
 Framework group  C1[X(H6O7SiZr)]
 Deg. of freedom    39
 Full point group                 C1      NOp   1
 Largest Abelian subgroup         C1      NOp   1
 Largest concise Abelian subgroup C1      NOp   1
                         Standard orientation:                         
 ---------------------------------------------------------------------
 Center     Atomic      Atomic             Coordinates (Angstroms)
 Number     Number       Type             X           Y           Z
 ---------------------------------------------------------------------
      1         14           0       -1.873604   -0.040217   -0.137949
      2          8           0       -2.745275    1.336423   -0.342073
      3          8           0       -2.934004   -1.297371   -0.073987
      4          8           0       -0.622508   -0.320704   -1.141951
      5         40           0        1.089508   -0.018070   -0.054462
      6          1           0       -3.562706    1.246588   -0.843073
      7          1           0       -2.576090   -2.138669   -0.379590
      8          8           0       -0.996077    0.185465    1.289608
      9          1           0       -1.113807    1.030934    1.741067
     10          8           0        1.481709   -1.490030    1.192564
     11          1           0        1.214221   -1.658260    2.101692
     12          8           0        1.212955    1.787828    0.754200
     13          1           0        1.871851    2.467058    0.571795
     14          8           0        2.539698   -0.085931   -1.363781
     15          1           0        3.324696   -0.587235   -1.598765
 ---------------------------------------------------------------------
 Rotational constants (GHZ):           1.7790146           0.6266915           0.5985218
 General basis read from cards:  (5D, 7F)
 ======================================================================================================
                                       Pseudopotential Parameters
 ======================================================================================================
  Center     Atomic      Valence      Angular      Power
  Number     Number     Electrons     Momentum     of R      Exponent        Coefficient   SO-Coeffient
 ======================================================================================================
    1         14
                                   No pseudopotential on this center.
    2          8
                                   No pseudopotential on this center.
    3          8
                                   No pseudopotential on this center.
    4          8
                                   No pseudopotential on this center.
    5         40           12
                                      F and up 
                                                     0      645.9321873       -0.04258430    0.00000000
                                                     1      134.7547401      -20.22224090    0.00000000
                                                     2       42.3074619     -101.86951720    0.00000000
                                                     2       12.0003227      -41.61957840    0.00000000
                                                     2        4.1260454       -4.69861600    0.00000000
                                      S - F
                                                     0      117.6251862        2.79105590    0.00000000
                                                     1       22.9646089       41.94894590    0.00000000
                                                     2        4.5225298       67.72718660    0.00000000
                                      P - F
                                                     0       47.1953145        4.99111440    0.00000000
                                                     1       48.0356033       20.71931720    0.00000000
                                                     2       19.4541456      195.58677580    0.00000000
                                                     2        4.0512875       48.28771760    0.00000000
                                      D - F
                                                     0       79.9073983        3.00492260    0.00000000
                                                     1       45.8263798       25.93779890    0.00000000
                                                     2       26.9903522      125.12449340    0.00000000
                                                     2        9.6835718       70.76340220    0.00000000
                                                     2        2.7995666       15.04928220    0.00000000
    6          1
                                   No pseudopotential on this center.
    7          1
                                   No pseudopotential on this center.
    8          8
                                   No pseudopotential on this center.
    9          1
                                   No pseudopotential on this center.
   10          8
                                   No pseudopotential on this center.
   11          1
                                   No pseudopotential on this center.
   12          8
                                   No pseudopotential on this center.
   13          1
                                   No pseudopotential on this center.
   14          8
                                   No pseudopotential on this center.
   15          1
                                   No pseudopotential on this center.
 ======================================================================================================
 There are   178 symmetry adapted cartesian basis functions of A   symmetry.
 There are   168 symmetry adapted basis functions of A   symmetry.
   168 basis functions,   339 primitive gaussians,   178 cartesian basis functions
    44 alpha electrons       44 beta electrons
       nuclear repulsion energy       667.6964238293 Hartrees.
 NAtoms=   15 NActive=   15 NUniq=   15 SFac= 1.00D+00 NAtFMM=   60 NAOKFM=F Big=F
 Integral buffers will be    131072 words long.
 Raffenetti 2 integral format.
 Two-electron integral symmetry is turned on.
 One-electron integrals computed using PRISM.
   1 Symmetry operations used in ECPInt.
 ECPInt:  NShTT=    1770 NPrTT=   10201 LenC2=    1670 LenP2D=    6774.
 LDataN:  DoStor=T MaxTD1= 5 Len=  102
 NBasis=   168 RedAO= T EigKep=  7.93D-03  NBF=   168
 NBsUse=   168 1.00D-06 EigRej= -1.00D+00 NBFU=   168
 Defaulting to unpruned grid for atomic number  40.
 ExpMin= 2.43D-02 ExpMax= 1.61D+04 ExpMxC= 2.43D+03 IAcc=3 IRadAn=         5 AccDes= 0.00D+00
 Harris functional with IExCor=  402 and IRadAn=       5 diagonalized for initial guess.
 HarFok:  IExCor=  402 AccDes= 0.00D+00 IRadAn=         5 IDoV= 1 UseB2=F ITyADJ=14
 ICtDFT=  3500011 ScaDFX=  1.000000  1.000000  1.000000  1.000000
 Defaulting to unpruned grid for atomic number  40.
 FoFCou: FMM=F IPFlag=           0 FMFlag=      100000 FMFlg1=           0
         NFxFlg=           0 DoJE=T BraDBF=F KetDBF=T FulRan=T
         wScrn=  0.000000 ICntrl=       500 IOpCl=  0 I1Cent=   200000004 NGrid=           0
         NMat0=    1 NMatS0=      1 NMatT0=    0 NMatD0=    1 NMtDS0=    0 NMtDT0=    0
 Petite list used in FoFCou.
 Requested convergence on RMS density matrix=1.00D-08 within 128 cycles.
 Requested convergence on MAX density matrix=1.00D-06.
 Requested convergence on             energy=1.00D-06.
 No special actions if energy rises.
 Defaulting to unpruned grid for atomic number  40.
 Defaulting to unpruned grid for atomic number  40.
 Defaulting to unpruned grid for atomic number  40.
 Defaulting to unpruned grid for atomic number  40.
 Defaulting to unpruned grid for atomic number  40.
 Defaulting to unpruned grid for atomic number  40.
 Defaulting to unpruned grid for atomic number  40.
 Defaulting to unpruned grid for atomic number  40.
 Defaulting to unpruned grid for atomic number  40.
 Defaulting to unpruned grid for atomic number  40.
 Defaulting to unpruned grid for atomic number  40.
 Defaulting to unpruned grid for atomic number  40.
 Defaulting to unpruned grid for atomic number  40.
 Defaulting to unpruned grid for atomic number  40.
 Defaulting to unpruned grid for atomic number  40.
 Defaulting to unpruned grid for atomic number  40.
 SCF Done:  E(RB3LYP) =  -866.688416607     A.U. after   15 cycles
            NFock= 15  Conv=0.22D-08     -V/T= 2.0444

 **********************************************************************

            Population analysis using the SCF Density.

 **********************************************************************

 Orbital symmetries:
       Occupied  (A) (A) (A) (A) (A) (A) (A) (A) (A) (A) (A) (A)
                 (A) (A) (A) (A) (A) (A) (A) (A) (A) (A) (A) (A)
                 (A) (A) (A) (A) (A) (A) (A) (A) (A) (A) (A) (A)
                 (A) (A) (A) (A) (A) (A) (A) (A)
       Virtual   (A) (A) (A) (A) (A) (A) (A) (A) (A) (A) (A) (A)
                 (A) (A) (A) (A) (A) (A) (A) (A) (A) (A) (A) (A)
                 (A) (A) (A) (A) (A) (A) (A) (A) (A) (A) (A) (A)
                 (A) (A) (A) (A) (A) (A) (A) (A) (A) (A) (A) (A)
                 (A) (A) (A) (A) (A) (A) (A) (A) (A) (A) (A) (A)
                 (A) (A) (A) (A) (A) (A) (A) (A) (A) (A) (A) (A)
                 (A) (A) (A) (A) (A) (A) (A) (A) (A) (A) (A) (A)
                 (A) (A) (A) (A) (A) (A) (A) (A) (A) (A) (A) (A)
                 (A) (A) (A) (A) (A) (A) (A) (A) (A) (A) (A) (A)
                 (A) (A) (A) (A) (A) (A) (A) (A) (A) (A) (A) (A)
                 (A) (A) (A) (A)
 The electronic state is 1-A.
 Alpha  occ. eigenvalues --  -66.19961 -19.17161 -19.15555 -19.15493 -19.13281
 Alpha  occ. eigenvalues --  -19.12955 -19.12875 -19.12335  -5.34340  -3.70338
 Alpha  occ. eigenvalues --   -3.70263  -3.70194  -2.05476  -1.26229  -1.26083
 Alpha  occ. eigenvalues --   -1.25710  -1.03933  -1.01162  -1.00139  -0.95049
 Alpha  occ. eigenvalues --   -0.94286  -0.93820  -0.93127  -0.58295  -0.53787
 Alpha  occ. eigenvalues --   -0.52489  -0.47971  -0.47042  -0.46453  -0.43358
 Alpha  occ. eigenvalues --   -0.40311  -0.39808  -0.38080  -0.36206  -0.34850
 Alpha  occ. eigenvalues --   -0.34190  -0.33771  -0.33309  -0.32415  -0.31535
 Alpha  occ. eigenvalues --   -0.30652  -0.30271  -0.30194  -0.29598
 Alpha virt. eigenvalues --   -0.01509  -0.00877  -0.00275   0.00650   0.01601
 Alpha virt. eigenvalues --    0.02259   0.03159   0.03367   0.05493   0.08273
 Alpha virt. eigenvalues --    0.09423   0.12780   0.14360   0.15288   0.16175
 Alpha virt. eigenvalues --    0.16993   0.17917   0.18824   0.19535   0.23457
 Alpha virt. eigenvalues --    0.23822   0.24681   0.25225   0.26391   0.28733
 Alpha virt. eigenvalues --    0.30926   0.31915   0.33357   0.38189   0.38976
 Alpha virt. eigenvalues --    0.41412   0.55772   0.62723   0.73988   0.78847
 Alpha virt. eigenvalues --    0.80269   0.84340   0.86629   0.87432   0.89449
 Alpha virt. eigenvalues --    0.90543   0.91055   0.92447   0.94809   0.95330
 Alpha virt. eigenvalues --    0.96705   0.98032   1.00380   1.02420   1.03654
 Alpha virt. eigenvalues --    1.07319   1.07823   1.09251   1.10234   1.12474
 Alpha virt. eigenvalues --    1.13845   1.15784   1.18848   1.19463   1.21594
 Alpha virt. eigenvalues --    1.24332   1.25478   1.30857   1.39273   1.47489
 Alpha virt. eigenvalues --    1.48559   1.49707   1.51748   1.53153   1.55953
 Alpha virt. eigenvalues --    1.57568   1.58186   1.59611   1.61065   1.63247
 Alpha virt. eigenvalues --    1.63718   1.64857   1.68233   1.69587   1.71097
 Alpha virt. eigenvalues --    1.73249   1.75003   1.80172   1.80588   1.81879
 Alpha virt. eigenvalues --    1.82906   1.83867   1.85409   1.87043   1.88443
 Alpha virt. eigenvalues --    1.91248   1.92390   2.00677   2.08407   2.13418
 Alpha virt. eigenvalues --    2.35026   2.35584   2.36244   2.37973   2.38580
 Alpha virt. eigenvalues --    2.40116   2.43101   2.55738   2.59075   2.61706
 Alpha virt. eigenvalues --    2.62881   2.63742   2.64286   2.64567   2.64933
 Alpha virt. eigenvalues --    2.65342   2.65470   2.66267   2.66422   2.71989
 Alpha virt. eigenvalues --    2.77257   2.81783   3.40817   3.42174   3.43096
 Alpha virt. eigenvalues --    3.43973   3.45940   3.46605   4.49073
          Condensed to atoms (all electrons):
               1          2          3          4          5          6
     1  Si  11.571962   0.386978   0.393687   0.341749  -0.102164  -0.022081
     2  O    0.386978   7.950864  -0.020180  -0.010652   0.006188   0.304425
     3  O    0.393687  -0.020180   7.944532  -0.017029   0.000808  -0.001005
     4  O    0.341749  -0.010652  -0.017029   8.264266   0.193110  -0.000296
     5  Zr  -0.102164   0.006188   0.000808   0.193110   9.800804  -0.000919
     6  H   -0.022081   0.304425  -0.001005  -0.000296  -0.000919   0.378768
     7  H   -0.017391   0.000380   0.301705   0.001218  -0.003244  -0.000046
     8  O    0.258934  -0.018295  -0.012554  -0.038724   0.090959   0.000622
     9  H   -0.008935   0.001040  -0.000244   0.000692  -0.010817   0.000001
    10  O   -0.007876  -0.000000  -0.000000   0.000150   0.229074   0.000000
    11  H    0.000125  -0.000000  -0.000000  -0.000087  -0.017566   0.000000
    12  O   -0.009825  -0.000002  -0.000000   0.000261   0.228244   0.000000
    13  H    0.000513  -0.000002   0.000000  -0.000022  -0.017226  -0.000000
    14  O   -0.000872   0.000000  -0.000000   0.000690   0.210122   0.000000
    15  H    0.000014  -0.000000   0.000000  -0.000060  -0.014413  -0.000000
               7          8          9         10         11         12
     1  Si  -0.017391   0.258934  -0.008935  -0.007876   0.000125  -0.009825
     2  O    0.000380  -0.018295   0.001040  -0.000000  -0.000000  -0.000002
     3  O    0.301705  -0.012554  -0.000244  -0.000000  -0.000000  -0.000000
     4  O    0.001218  -0.038724   0.000692   0.000150  -0.000087   0.000261
     5  Zr  -0.003244   0.090959  -0.010817   0.229074  -0.017566   0.228244
     6  H   -0.000046   0.000622   0.000001   0.000000   0.000000   0.000000
     7  H    0.381693  -0.000178   0.000054  -0.000005  -0.000001   0.000000
     8  O   -0.000178   8.083708   0.297992  -0.005101  -0.000853  -0.009161
     9  H    0.000054   0.297992   0.352632  -0.000183  -0.000045   0.002363
    10  O   -0.000005  -0.005101  -0.000183   8.175298   0.295187   0.000711
    11  H   -0.000001  -0.000853  -0.000045   0.295187   0.393509  -0.000313
    12  O    0.000000  -0.009161   0.002363   0.000711  -0.000313   8.197079
    13  H    0.000000   0.000341  -0.000071  -0.000063  -0.000000   0.291544
    14  O   -0.000000  -0.000095   0.000008   0.000872   0.000016   0.000547
    15  H    0.000000  -0.000000  -0.000000  -0.000504   0.000001  -0.000093
              13         14         15
     1  Si   0.000513  -0.000872   0.000014
     2  O   -0.000002   0.000000  -0.000000
     3  O    0.000000  -0.000000   0.000000
     4  O   -0.000022   0.000690  -0.000060
     5  Zr  -0.017226   0.210122  -0.014413
     6  H   -0.000000   0.000000  -0.000000
     7  H    0.000000  -0.000000   0.000000
     8  O    0.000341  -0.000095  -0.000000
     9  H   -0.000071   0.000008  -0.000000
    10  O   -0.000063   0.000872  -0.000504
    11  H   -0.000000   0.000016   0.000001
    12  O    0.291544   0.000547  -0.000093
    13  H    0.398780  -0.001473   0.000002
    14  O   -0.001473   8.183497   0.298218
    15  H    0.000002   0.298218   0.384854
 Mulliken charges:
               1
     1  Si   1.215182
     2  O   -0.600743
     3  O   -0.589718
     4  O   -0.735267
     5  Zr   1.407041
     6  H    0.340531
     7  H    0.335815
     8  O   -0.647594
     9  H    0.365514
    10  O   -0.687561
    11  H    0.330028
    12  O   -0.701354
    13  H    0.327677
    14  O   -0.691531
    15  H    0.331982
 Sum of Mulliken charges =  -0.00000
 Mulliken charges with hydrogens summed into heavy atoms:
               1
     1  Si   1.215182
     2  O   -0.260213
     3  O   -0.253903
     4  O   -0.735267
     5  Zr   1.407041
     8  O   -0.282080
    10  O   -0.357533
    12  O   -0.373677
    14  O   -0.359550
 Electronic spatial extent (au):  <R**2>=           1856.1012
 Charge=             -0.0000 electrons
 Dipole moment (field-independent basis, Debye):
    X=             -0.0729    Y=             -0.1276    Z=              0.6977  Tot=              0.7130
 Quadrupole moment (field-independent basis, Debye-Ang):
   XX=            -64.8237   YY=            -69.4463   ZZ=            -72.1961
   XY=              1.0529   XZ=              1.7141   YZ=              1.4329
 Traceless Quadrupole moment (field-independent basis, Debye-Ang):
   XX=              3.9983   YY=             -0.6243   ZZ=             -3.3740
   XY=              1.0529   XZ=              1.7141   YZ=              1.4329
 Octapole moment (field-independent basis, Debye-Ang**2):
  XXX=             36.6936  YYY=             -3.8155  ZZZ=             19.1012  XYY=              8.6195
  XXY=             12.2624  XXZ=            -28.0356  XZZ=              7.1536  YZZ=             -4.5058
  YYZ=             -1.0566  XYZ=              3.5105
 Hexadecapole moment (field-independent basis, Debye-Ang**3):
 XXXX=          -1297.0014 YYYY=           -373.1162 ZZZZ=           -317.4677 XXXY=            -73.4935
 XXXZ=             17.4308 YYYX=             76.3064 YYYZ=              8.6930 ZZZX=              2.7309
 ZZZY=            -12.7563 XXYY=           -278.2293 XXZZ=           -268.9513 YYZZ=           -110.7509
 XXYZ=             22.0142 YYXZ=              6.6324 ZZXY=            -30.5478
 N-N= 6.676964238293D+02 E-N=-3.371705123343D+03  KE= 8.298236032616D+02
   1 Symmetry operations used in ECPInt.
 ECPInt:  NShTT=    1770 NPrTT=   10201 LenC2=    1670 LenP2D=    6774.
 LDataN:  DoStor=T MaxTD1= 6 Len=  172
 Calling FoFJK, ICntrl=      2127 FMM=F ISym2X=0 I1Cent= 0 IOpClX= 0 NMat=1 NMatS=1 NMatT=0.
 Defaulting to unpruned grid for atomic number  40.
 Defaulting to unpruned grid for atomic number  40.
 Defaulting to unpruned grid for atomic number  40.
 Defaulting to unpruned grid for atomic number  40.
 Defaulting to unpruned grid for atomic number  40.
 Defaulting to unpruned grid for atomic number  40.
 Defaulting to unpruned grid for atomic number  40.
 Defaulting to unpruned grid for atomic number  40.
 Defaulting to unpruned grid for atomic number  40.
 Defaulting to unpruned grid for atomic number  40.
 Defaulting to unpruned grid for atomic number  40.
 Defaulting to unpruned grid for atomic number  40.
 Defaulting to unpruned grid for atomic number  40.
 Defaulting to unpruned grid for atomic number  40.
 Defaulting to unpruned grid for atomic number  40.
 Defaulting to unpruned grid for atomic number  40.
 ***** Axes restored to original set *****
 -------------------------------------------------------------------
 Center     Atomic                   Forces (Hartrees/Bohr)
 Number     Number              X              Y              Z
 -------------------------------------------------------------------
      1       14          -0.004800863   -0.000818989   -0.003829155
      2        8           0.000328147   -0.000213860    0.000487522
      3        8           0.000077850    0.000254897    0.000390898
      4        8          -0.001589787    0.000447328    0.002162488
      5       40           0.005444021   -0.000732535    0.000665933
      6        1          -0.000028446   -0.000042911    0.000036703
      7        1           0.000031901   -0.000045511   -0.000032477
      8        8          -0.002939275   -0.000587277    0.001008185
      9        1           0.000532586    0.000706749    0.000196671
     10        8           0.001095392   -0.001083943   -0.000223956
     11        1          -0.000141689    0.000313402   -0.000260042
     12        8           0.000708307    0.002186204    0.000423537
     13        1           0.000173054   -0.000191262   -0.000201411
     14        8           0.001053396   -0.000446744   -0.000546894
     15        1           0.000055406    0.000254454   -0.000278003
 -------------------------------------------------------------------
 Cartesian Forces:  Max     0.005444021 RMS     0.001474075

 GradGradGradGradGradGradGradGradGradGradGradGradGradGradGradGradGradGrad
 Berny optimization.
 FormGI is forming the generalized inverse of G from B-inverse, IUseBI=4.
 Internal  Forces:  Max     0.006915286 RMS     0.001203286
 Search for a local minimum.
 Step number   1 out of a maximum of   83
 All quantities printed in internal units (Hartrees-Bohrs-Radians)
 Mixed Optimization -- En-DIIS/RFO-DIIS
 Second derivative matrix not updated -- first step.
 ITU=  0
     Eigenvalues ---    0.00230   0.00230   0.00230   0.00599   0.03138
     Eigenvalues ---    0.03732   0.03782   0.04376   0.04733   0.07447
     Eigenvalues ---    0.08545   0.10620   0.12819   0.15208   0.15479
     Eigenvalues ---    0.16000   0.16000   0.16000   0.16000   0.16000
     Eigenvalues ---    0.16000   0.18274   0.18952   0.19303   0.19683
     Eigenvalues ---    0.20440   0.21696   0.22735   0.35595   0.37017
     Eigenvalues ---    0.43277   0.43863   0.54274   0.54624   0.54679
     Eigenvalues ---    0.54844   0.54944   0.553451000.000001000.00000
     Eigenvalues --- 1000.000001000.000001000.000001000.000001000.00000
     Eigenvalues --- 1000.000001000.000001000.000001000.000001000.00000
     Eigenvalues --- 1000.000001000.000001000.000001000.000001000.00000
     Eigenvalues --- 1000.000001000.000001000.000001000.000001000.00000
     Eigenvalues --- 1000.000001000.000001000.000001000.000001000.00000
     Eigenvalues --- 1000.000001000.000001000.000001000.000001000.00000
     Eigenvalues --- 1000.000001000.000001000.00000
 RFO step:  Lambda=-4.75803215D-04 EMin= 2.30000000D-03
 Linear search not attempted -- first point.
 Iteration  1 RMS(Cart)=  0.01543329 RMS(Int)=  0.00005094
 Iteration  2 RMS(Cart)=  0.00005274 RMS(Int)=  0.00001725
 Iteration  3 RMS(Cart)=  0.00000000 RMS(Int)=  0.00001725
 Iteration  1 RMS(Cart)=  0.00000131 RMS(Int)=  0.00000121
 Iteration  2 RMS(Cart)=  0.00000097 RMS(Int)=  0.00000132
 Variable       Old X    -DE/DX   Delta X   Delta X   Delta X     New X
                                 (Linear)    (Quad)   (Total)
    R1        3.10319  -0.00045   0.00000  -0.00102  -0.00102   3.10217
    R2        3.11029  -0.00022   0.00000  -0.00051  -0.00051   3.10978
    R3        3.07737  -0.00127   0.00000   0.00686   0.00685   3.08423
    R4        5.60185   0.00692   0.00000   0.03424   0.03425   5.63609
    R5        3.19520  -0.00014   0.00000  -0.00037  -0.00037   3.19484
    R6        1.81970   0.00001   0.00000   0.00001   0.00001   1.81972
    R7        1.82168   0.00006   0.00000   0.00011   0.00011   1.82179
    R8        3.87519   0.00101   0.00000   0.03422   0.03422   3.90941
    R9        3.72020   0.00044   0.00000   0.00222   0.00222   3.72241
   R10        3.74645   0.00195   0.00000   0.01028   0.01028   3.75673
   R11        3.69439   0.00138   0.00000   0.00676   0.00676   3.70115
   R12        1.82483   0.00064   0.00000   0.00117   0.00117   1.82600
   R13        1.81882  -0.00025   0.00000  -0.00046  -0.00046   1.81836
   R14        1.82118   0.00002   0.00000   0.00003   0.00003   1.82121
   R15        1.81526  -0.00003   0.00000  -0.00005  -0.00005   1.81522
    A1        1.87881   0.00040   0.00000  -0.00084  -0.00085   1.87795
    A2        2.06640   0.00053   0.00000   0.00111   0.00112   2.06752
    A3        2.12684  -0.00034   0.00000  -0.00223  -0.00224   2.12460
    A4        1.84268  -0.00121   0.00000  -0.00447  -0.00447   1.83820
    A5        1.96857   0.00047   0.00000  -0.00193  -0.00191   1.96666
    A6        2.27655  -0.00008   0.00000   0.00308   0.00310   2.27965
    A7        1.98615  -0.00145   0.00000  -0.00656  -0.00659   1.97955
    A8        1.71611   0.00098   0.00000   0.01267   0.01265   1.72876
    A9        0.99614   0.00280   0.00000   0.01081   0.01083   1.00696
   A10        2.02313  -0.00006   0.00000  -0.00037  -0.00037   2.02276
   A11        1.99882  -0.00002   0.00000  -0.00016  -0.00016   1.99866
   A12        1.86400   0.00344   0.00000   0.00000  -0.00001   1.86399
   A13        1.78380   0.00113   0.00000   0.00631   0.00626   1.79006
   A14        1.65142   0.00121   0.00000   0.00714   0.00710   1.65852
   A15        2.37800  -0.00121   0.00000  -0.00453  -0.00452   2.37347
   A16        1.97349  -0.00008   0.00000   0.00071   0.00068   1.97418
   A17        1.98529   0.00026   0.00000   0.00342   0.00339   1.98868
   A18        1.83278   0.00049   0.00000  -0.00207  -0.00208   1.83071
   A19        1.99358   0.00048   0.00000   0.00821   0.00815   2.00173
   A20        1.82399  -0.00055   0.00000  -0.00658  -0.00657   1.81743
   A21        1.83238  -0.00076   0.00000  -0.00656  -0.00654   1.82584
   A22        2.03567   0.00050   0.00000   0.00310   0.00310   2.03877
   A23        2.30994  -0.00063   0.00000  -0.00391  -0.00391   2.30603
   A24        2.22354  -0.00059   0.00000  -0.00369  -0.00369   2.21985
   A25        2.47857   0.00069   0.00000   0.00429   0.00429   2.48286
    D1       -0.55056  -0.00077   0.00000  -0.00151  -0.00151  -0.55207
    D2        1.70706   0.00073   0.00000  -0.00410  -0.00409   1.70297
    D3        2.54783  -0.00125   0.00000  -0.00123  -0.00124   2.54659
    D4       -2.67792   0.00138   0.00000   0.00908   0.00908  -2.66884
    D5        2.64795   0.00074   0.00000   0.00214   0.00214   2.65009
    D6        0.33621  -0.00071   0.00000   0.00292   0.00291   0.33912
    D7       -0.44543   0.00128   0.00000   0.00203   0.00203  -0.44340
    D8       -1.59959  -0.00134   0.00000  -0.00771  -0.00768  -1.60727
    D9        2.57342   0.00085   0.00000   0.00277   0.00278   2.57620
   D10        0.54855  -0.00021   0.00000  -0.00902  -0.00904   0.53951
   D11       -1.49978   0.00027   0.00000  -0.00450  -0.00450  -1.50428
   D12       -0.62228   0.00026   0.00000   0.00296   0.00296  -0.61932
   D13       -2.64715  -0.00080   0.00000  -0.00883  -0.00885  -2.65600
   D14        1.58771  -0.00032   0.00000  -0.00431  -0.00432   1.58339
   D15        1.02837   0.00048   0.00000   0.00042   0.00045   1.02882
   D16       -0.99650  -0.00058   0.00000  -0.01136  -0.01136  -1.00786
   D17       -3.04483  -0.00010   0.00000  -0.00684  -0.00683  -3.05166
   D18       -0.01284  -0.00071   0.00000  -0.01052  -0.01050  -0.02334
   D19       -2.06943   0.00038   0.00000  -0.00302  -0.00305  -2.07248
   D20        2.12810  -0.00014   0.00000  -0.00549  -0.00547   2.12262
   D21        2.04983  -0.00049   0.00000  -0.01090  -0.01089   2.03894
   D22       -0.99238  -0.00111   0.00000   0.00097   0.00095  -0.99143
   D23       -1.54004   0.00021   0.00000   0.00095   0.00094  -1.53910
   D24        0.76720   0.00099   0.00000   0.01477   0.01480   0.78200
   D25        2.75972  -0.00002   0.00000   0.00687   0.00686   2.76658
   D26       -2.50011   0.00109   0.00000   0.00197   0.00199  -2.49812
   D27       -2.04159  -0.00025   0.00000   0.00235   0.00237  -2.03921
   D28        1.94002  -0.00087   0.00000  -0.01028  -0.01033   1.92969
   D29       -0.04755   0.00001   0.00000  -0.00241  -0.00240  -0.04995
   D30       -2.16064   0.00003   0.00000  -0.00093  -0.00093  -2.16156
   D31       -2.04483   0.00008   0.00000  -0.00105  -0.00106  -2.04588
   D32        0.03633  -0.00004   0.00000  -0.00415  -0.00415   0.03218
   D33        2.14000  -0.00009   0.00000  -0.00091  -0.00092   2.13909
         Item               Value     Threshold  Converged?
 Maximum Force            0.003856     0.000450     NO 
 RMS     Force            0.000918     0.000300     NO 
 Maximum Displacement     0.055056     0.001800     NO 
 RMS     Displacement     0.015427     0.001200     NO 
 Predicted change in Energy=-2.393130D-04
 GradGradGradGradGradGradGradGradGradGradGradGradGradGradGradGradGradGrad

                          Input orientation:                          
 ---------------------------------------------------------------------
 Center     Atomic      Atomic             Coordinates (Angstroms)
 Number     Number       Type             X           Y           Z
 ---------------------------------------------------------------------
      1         14           0       -1.916339   -0.042133   -0.132664
      2          8           0       -2.783451    1.331638   -0.368701
      3          8           0       -2.976577   -1.300266   -0.099893
      4          8           0       -0.631744   -0.326641   -1.098391
      5         40           0        1.060475   -0.006558    0.047802
      6          1           0       -3.583253    1.238606   -0.896851
      7          1           0       -2.607229   -2.142279   -0.389705
      8          8           0       -1.102594    0.189180    1.331086
      9          1           0       -1.235757    1.037312    1.774517
     10          8           0        1.430982   -1.475659    1.306629
     11          1           0        1.136932   -1.643434    2.207341
     12          8           0        1.165128    1.813193    0.841275
     13          1           0        1.831789    2.487069    0.667328
     14          8           0        2.549651   -0.078177   -1.222313
     15          1           0        3.343786   -0.575191   -1.434501
 ---------------------------------------------------------------------
                    Distance matrix (angstroms):
                    1          2          3          4          5
     1  Si   0.000000
     2  O    1.641597   0.000000
     3  O    1.645624   2.652636   0.000000
     4  O    1.632103   2.812859   2.728220   0.000000
     5  Zr   2.982492   4.091456   4.241850   2.068772   0.000000
     6  H    2.236711   0.962954   2.729299   3.346942   4.899695
     7  H    2.225761   3.478447   0.964051   2.775124   4.266704
     8  O    1.690635   2.649483   2.788899   2.527870   2.522697
     9  H    2.294718   2.659956   3.465276   3.237097   3.056778
    10  O    3.915498   5.333769   4.629865   3.370342   1.969817
    11  H    4.166804   5.554858   4.728853   3.973667   2.710870
    12  O    3.726424   4.157789   5.266227   3.401462   1.987975
    13  H    4.591875   4.869170   6.168705   4.135665   2.682706
    14  O    4.597141   5.581953   5.769968   3.193488   1.958562
    15  H    5.444984   6.504994   6.500300   3.997447   2.781020
                    6          7          8          9         10
     6  H    0.000000
     7  H    3.555306   0.000000
     8  O    3.495520   3.265079   0.000000
     9  H    3.561946   4.083452   0.966277   0.000000
    10  O    6.112701   4.430472   3.031715   3.693973   0.000000
    11  H    6.342106   4.583910   3.023537   3.606021   0.962235
    12  O    5.089042   5.602833   2.831943   2.690201   3.332233
    13  H    5.773040   6.500235   3.785694   3.568964   4.033927
    14  O    6.281111   5.616686   4.464328   4.955262   3.098375
    15  H    7.180723   6.241949   5.291789   5.819808   3.461712
                   11         12         13         14         15
    11  H    0.000000
    12  O    3.716881   0.000000
    13  H    4.462681   0.963744   0.000000
    14  O    4.025957   3.122912   3.265969   0.000000
    15  H    4.390257   3.953490   4.010144   0.960571   0.000000
 Stoichiometry    H6O7SiZr
 Framework group  C1[X(H6O7SiZr)]
 Deg. of freedom    39
 Full point group                 C1      NOp   1
 Largest Abelian subgroup         C1      NOp   1
 Largest concise Abelian subgroup C1      NOp   1
                         Standard orientation:                         
 ---------------------------------------------------------------------
 Center     Atomic      Atomic             Coordinates (Angstroms)
 Number     Number       Type             X           Y           Z
 ---------------------------------------------------------------------
      1         14           0       -1.884618   -0.039934   -0.138566
      2          8           0       -2.752487    1.338352   -0.343435
      3          8           0       -2.948971   -1.293467   -0.076226
      4          8           0       -0.632151   -0.327220   -1.144823
      5         40           0        1.096515   -0.018044   -0.051232
      6          1           0       -3.568828    1.250434   -0.846564
      7          1           0       -2.592666   -2.136230   -0.379854
      8          8           0       -1.024455    0.183401    1.299659
      9          1           0       -1.139859    1.030782    1.749458
     10          8           0        1.499589   -1.492527    1.191189
     11          1           0        1.233100   -1.661698    2.100178
     12          8           0        1.234135    1.798844    0.743767
     13          1           0        1.898059    2.470288    0.550968
     14          8           0        2.544899   -0.092436   -1.367521
     15          1           0        3.329761   -0.592315   -1.605870
 ---------------------------------------------------------------------
 Rotational constants (GHZ):           1.7716302           0.6201069           0.5922566
 Basis read from rwf:  (5D, 7F)
 Pseudo-potential data read from rwf file.
 There are   178 symmetry adapted cartesian basis functions of A   symmetry.
 There are   168 symmetry adapted basis functions of A   symmetry.
   168 basis functions,   339 primitive gaussians,   178 cartesian basis functions
    44 alpha electrons       44 beta electrons
       nuclear repulsion energy       665.3824653279 Hartrees.
 NAtoms=   15 NActive=   15 NUniq=   15 SFac= 1.00D+00 NAtFMM=   60 NAOKFM=F Big=F
 Integral buffers will be    131072 words long.
 Raffenetti 2 integral format.
 Two-electron integral symmetry is turned on.
 One-electron integrals computed using PRISM.
   1 Symmetry operations used in ECPInt.
 ECPInt:  NShTT=    1770 NPrTT=   10201 LenC2=    1668 LenP2D=    6756.
 LDataN:  DoStor=T MaxTD1= 5 Len=  102
 NBasis=   168 RedAO= T EigKep=  8.10D-03  NBF=   168
 NBsUse=   168 1.00D-06 EigRej= -1.00D+00 NBFU=   168
 Defaulting to unpruned grid for atomic number  40.
 Initial guess from the checkpoint file:  "/localscratch/sarashs.33453153.0/Gau-13139.chk"
 B after Tr=     0.000000   -0.000000    0.000000
         Rot=    0.999999    0.000907   -0.000194    0.000405 Ang=   0.12 deg.
 ExpMin= 2.43D-02 ExpMax= 1.61D+04 ExpMxC= 2.43D+03 IAcc=3 IRadAn=         5 AccDes= 0.00D+00
 Harris functional with IExCor=  402 and IRadAn=       5 diagonalized for initial guess.
 HarFok:  IExCor=  402 AccDes= 0.00D+00 IRadAn=         5 IDoV= 1 UseB2=F ITyADJ=14
 ICtDFT=  3500011 ScaDFX=  1.000000  1.000000  1.000000  1.000000
 Defaulting to unpruned grid for atomic number  40.
 FoFCou: FMM=F IPFlag=           0 FMFlag=      100000 FMFlg1=           0
         NFxFlg=           0 DoJE=T BraDBF=F KetDBF=T FulRan=T
         wScrn=  0.000000 ICntrl=       500 IOpCl=  0 I1Cent=   200000004 NGrid=           0
         NMat0=    1 NMatS0=      1 NMatT0=    0 NMatD0=    1 NMtDS0=    0 NMtDT0=    0
 Petite list used in FoFCou.
 Requested convergence on RMS density matrix=1.00D-08 within 128 cycles.
 Requested convergence on MAX density matrix=1.00D-06.
 Requested convergence on             energy=1.00D-06.
 No special actions if energy rises.
 Defaulting to unpruned grid for atomic number  40.
 Defaulting to unpruned grid for atomic number  40.
 Defaulting to unpruned grid for atomic number  40.
 Defaulting to unpruned grid for atomic number  40.
 Defaulting to unpruned grid for atomic number  40.
 Defaulting to unpruned grid for atomic number  40.
 Defaulting to unpruned grid for atomic number  40.
 Defaulting to unpruned grid for atomic number  40.
 Defaulting to unpruned grid for atomic number  40.
 Defaulting to unpruned grid for atomic number  40.
 Defaulting to unpruned grid for atomic number  40.
 Defaulting to unpruned grid for atomic number  40.
 Defaulting to unpruned grid for atomic number  40.
 Defaulting to unpruned grid for atomic number  40.
 Defaulting to unpruned grid for atomic number  40.
 Defaulting to unpruned grid for atomic number  40.
 SCF Done:  E(RB3LYP) =  -866.688605094     A.U. after   10 cycles
            NFock= 10  Conv=0.39D-08     -V/T= 2.0445
   1 Symmetry operations used in ECPInt.
 ECPInt:  NShTT=    1770 NPrTT=   10201 LenC2=    1668 LenP2D=    6756.
 LDataN:  DoStor=T MaxTD1= 6 Len=  172
 Calling FoFJK, ICntrl=      2127 FMM=F ISym2X=0 I1Cent= 0 IOpClX= 0 NMat=1 NMatS=1 NMatT=0.
 Defaulting to unpruned grid for atomic number  40.
 Defaulting to unpruned grid for atomic number  40.
 Defaulting to unpruned grid for atomic number  40.
 Defaulting to unpruned grid for atomic number  40.
 Defaulting to unpruned grid for atomic number  40.
 Defaulting to unpruned grid for atomic number  40.
 Defaulting to unpruned grid for atomic number  40.
 Defaulting to unpruned grid for atomic number  40.
 Defaulting to unpruned grid for atomic number  40.
 Defaulting to unpruned grid for atomic number  40.
 Defaulting to unpruned grid for atomic number  40.
 Defaulting to unpruned grid for atomic number  40.
 Defaulting to unpruned grid for atomic number  40.
 Defaulting to unpruned grid for atomic number  40.
 Defaulting to unpruned grid for atomic number  40.
 Defaulting to unpruned grid for atomic number  40.
 ***** Axes restored to original set *****
 -------------------------------------------------------------------
 Center     Atomic                   Forces (Hartrees/Bohr)
 Number     Number              X              Y              Z
 -------------------------------------------------------------------
      1       14          -0.002515639   -0.001470266   -0.004820875
      2        8          -0.000031618    0.000343869    0.000096671
      3        8          -0.000121792   -0.000282865    0.000234195
      4        8           0.001333192    0.002279582    0.007814179
      5       40           0.002006786    0.000208649   -0.002957629
      6        1           0.000032798    0.000003987   -0.000017900
      7        1          -0.000044339    0.000060761   -0.000077277
      8        8           0.000390112   -0.000005402    0.000262912
      9        1           0.000145234    0.000055212   -0.000398545
     10        8           0.000412344    0.000367041   -0.000860832
     11        1          -0.000157404    0.000092516    0.000213010
     12        8          -0.000124483   -0.001517630   -0.000402901
     13        1           0.000091924   -0.000151371   -0.000197233
     14        8          -0.001400606   -0.000022598    0.001213281
     15        1          -0.000016510    0.000038515   -0.000101054
 -------------------------------------------------------------------
 Cartesian Forces:  Max     0.007814179 RMS     0.001635727

 GradGradGradGradGradGradGradGradGradGradGradGradGradGradGradGradGradGrad
 Berny optimization.
 Using GEDIIS/GDIIS optimizer.
 FormGI is forming the generalized inverse of G from B-inverse, IUseBI=4.
 Internal  Forces:  Max     0.004175041 RMS     0.001031740
 Search for a local minimum.
 Step number   2 out of a maximum of   83
 All quantities printed in internal units (Hartrees-Bohrs-Radians)
 Mixed Optimization -- En-DIIS/RFO-DIIS
 Swapping is turned off.
 Update second derivatives using D2CorX and points    1    2
 DE= -1.88D-04 DEPred=-2.39D-04 R= 7.88D-01
 TightC=F SS=  1.41D+00  RLast= 6.71D-02 DXNew= 5.0454D-01 2.0116D-01
 Trust test= 7.88D-01 RLast= 6.71D-02 DXMaxT set to 3.00D-01
 ITU=  1  0
     Eigenvalues ---    0.00230   0.00230   0.00230   0.00607   0.03077
     Eigenvalues ---    0.03731   0.03782   0.04406   0.04748   0.07515
     Eigenvalues ---    0.07974   0.11063   0.12617   0.15202   0.15494
     Eigenvalues ---    0.15947   0.16000   0.16000   0.16000   0.16000
     Eigenvalues ---    0.16151   0.18236   0.19208   0.19499   0.19855
     Eigenvalues ---    0.21665   0.22008   0.25360   0.35819   0.37035
     Eigenvalues ---    0.43320   0.43939   0.54305   0.54625   0.54679
     Eigenvalues ---    0.54845   0.54982   0.553451000.000001000.00000
     Eigenvalues --- 1000.000001000.000001000.000001000.000001000.00000
     Eigenvalues --- 1000.000001000.000001000.000001000.000001000.00000
     Eigenvalues --- 1000.000001000.000001000.000001000.000001000.00000
     Eigenvalues --- 1000.000001000.000001000.000001000.000001000.00000
     Eigenvalues --- 1000.000001000.000001000.000001000.000001000.00000
     Eigenvalues --- 1000.000001000.000001000.000001000.000001000.00000
     Eigenvalues --- 1000.000001000.000001000.00000
 En-DIIS/RFO-DIIS/Sim-DIIS IScMMF=       -3 using points:     2    1
 RFO step:  Lambda=-5.63559512D-05.
 DidBck=F Rises=F RFO-DIIS coefs:    0.88390    0.11610
 Iteration  1 RMS(Cart)=  0.00780401 RMS(Int)=  0.00001890
 Iteration  2 RMS(Cart)=  0.00002750 RMS(Int)=  0.00000286
 Iteration  3 RMS(Cart)=  0.00000000 RMS(Int)=  0.00000286
 Iteration  1 RMS(Cart)=  0.00000056 RMS(Int)=  0.00000052
 Variable       Old X    -DE/DX   Delta X   Delta X   Delta X     New X
                                 (Linear)    (Quad)   (Total)
    R1        3.10217   0.00028   0.00012   0.00033   0.00045   3.10261
    R2        3.10978   0.00028   0.00006   0.00044   0.00050   3.11028
    R3        3.08423  -0.00347  -0.00080  -0.00024  -0.00103   3.08320
    R4        5.63609   0.00286  -0.00398   0.00079  -0.00319   5.63290
    R5        3.19484   0.00015   0.00004   0.00026   0.00030   3.19514
    R6        1.81972  -0.00002  -0.00000  -0.00002  -0.00003   1.81969
    R7        1.82179  -0.00005  -0.00001  -0.00005  -0.00006   1.82173
    R8        3.90941  -0.00363  -0.00397   0.00112  -0.00285   3.90656
    R9        3.72241  -0.00071  -0.00026  -0.00257  -0.00283   3.71958
   R10        3.75673  -0.00177  -0.00119  -0.00575  -0.00694   3.74978
   R11        3.70115  -0.00180  -0.00078  -0.00603  -0.00681   3.69433
   R12        1.82600  -0.00015  -0.00014  -0.00000  -0.00014   1.82586
   R13        1.81836   0.00023   0.00005   0.00026   0.00031   1.81867
   R14        1.82121  -0.00001  -0.00000  -0.00000  -0.00001   1.82120
   R15        1.81522  -0.00001   0.00001  -0.00003  -0.00002   1.81519
    A1        1.87795   0.00014   0.00010   0.00078   0.00088   1.87883
    A2        2.06752   0.00064  -0.00013  -0.00021  -0.00034   2.06717
    A3        2.12460  -0.00007   0.00026  -0.00063  -0.00037   2.12423
    A4        1.83820  -0.00021   0.00052  -0.00234  -0.00182   1.83639
    A5        1.96666   0.00111   0.00022   0.00164   0.00186   1.96852
    A6        2.27965  -0.00010  -0.00036  -0.00001  -0.00038   2.27927
    A7        1.97955  -0.00006   0.00077  -0.00014   0.00063   1.98018
    A8        1.72876  -0.00187  -0.00147  -0.00016  -0.00163   1.72713
    A9        1.00696   0.00052  -0.00126  -0.00048  -0.00174   1.00523
   A10        2.02276  -0.00001   0.00004  -0.00012  -0.00007   2.02269
   A11        1.99866  -0.00000   0.00002  -0.00004  -0.00002   1.99864
   A12        1.86399   0.00418   0.00000   0.00000   0.00000   1.86400
   A13        1.79006   0.00081  -0.00073   0.00501   0.00430   1.79435
   A14        1.65852   0.00063  -0.00082   0.00091   0.00009   1.65861
   A15        2.37347  -0.00114   0.00053  -0.00239  -0.00187   2.37160
   A16        1.97418   0.00006  -0.00008  -0.00042  -0.00050   1.97368
   A17        1.98868  -0.00032  -0.00039   0.00318   0.00279   1.99147
   A18        1.83071   0.00064   0.00024  -0.00151  -0.00126   1.82944
   A19        2.00173  -0.00012  -0.00095   0.00222   0.00128   2.00301
   A20        1.81743  -0.00013   0.00076  -0.00273  -0.00197   1.81546
   A21        1.82584  -0.00002   0.00076  -0.00202  -0.00126   1.82457
   A22        2.03877  -0.00041  -0.00036  -0.00150  -0.00186   2.03691
   A23        2.30603  -0.00029   0.00045  -0.00232  -0.00186   2.30416
   A24        2.21985  -0.00047   0.00043  -0.00325  -0.00282   2.21703
   A25        2.48286   0.00018  -0.00050   0.00181   0.00131   2.48418
    D1       -0.55207  -0.00051   0.00018  -0.00189  -0.00172  -0.55378
    D2        1.70297   0.00175   0.00047   0.00100   0.00148   1.70445
    D3        2.54659  -0.00089   0.00014   0.00098   0.00112   2.54771
    D4       -2.66884  -0.00040  -0.00105  -0.00087  -0.00192  -2.67076
    D5        2.65009   0.00038  -0.00025   0.00089   0.00064   2.65073
    D6        0.33912  -0.00151  -0.00034  -0.00082  -0.00116   0.33796
    D7       -0.44340   0.00080  -0.00024  -0.00230  -0.00254  -0.44594
    D8       -1.60727   0.00017   0.00089  -0.00156  -0.00067  -1.60795
    D9        2.57620   0.00042  -0.00032   0.00879   0.00847   2.58467
   D10        0.53951   0.00020   0.00105   0.00515   0.00620   0.54571
   D11       -1.50428   0.00019   0.00052   0.00873   0.00925  -1.49504
   D12       -0.61932  -0.00005  -0.00034   0.01241   0.01206  -0.60725
   D13       -2.65600  -0.00027   0.00103   0.00876   0.00979  -2.64621
   D14        1.58339  -0.00029   0.00050   0.01234   0.01284   1.59623
   D15        1.02882   0.00034  -0.00005   0.01183   0.01177   1.04060
   D16       -1.00786   0.00011   0.00132   0.00818   0.00950  -0.99836
   D17       -3.05166   0.00010   0.00079   0.01176   0.01255  -3.03911
   D18       -0.02334  -0.00009   0.00122  -0.00516  -0.00395  -0.02729
   D19       -2.07248  -0.00010   0.00035  -0.00456  -0.00420  -2.07668
   D20        2.12262  -0.00028   0.00064  -0.00632  -0.00569   2.11693
   D21        2.03894  -0.00006   0.00126  -0.00456  -0.00330   2.03564
   D22       -0.99143  -0.00092  -0.00011   0.00100   0.00088  -0.99055
   D23       -1.53910   0.00072  -0.00011  -0.00124  -0.00134  -1.54044
   D24        0.78200   0.00018  -0.00172   0.00533   0.00361   0.78561
   D25        2.76658   0.00002  -0.00080   0.00230   0.00150   2.76808
   D26       -2.49812   0.00095  -0.00023   0.00771   0.00748  -2.49063
   D27       -2.03921  -0.00062  -0.00028   0.00606   0.00577  -2.03344
   D28        1.92969  -0.00025   0.00120   0.00112   0.00232   1.93201
   D29       -0.04995  -0.00002   0.00028   0.00457   0.00485  -0.04511
   D30       -2.16156   0.00009   0.00011   0.00148   0.00159  -2.15998
   D31       -2.04588  -0.00014   0.00012   0.00626   0.00638  -2.03950
   D32        0.03218   0.00015   0.00048   0.00392   0.00440   0.03659
   D33        2.13909  -0.00006   0.00011   0.00428   0.00439   2.14348
         Item               Value     Threshold  Converged?
 Maximum Force            0.001800     0.000450     NO 
 RMS     Force            0.000390     0.000300     NO 
 Maximum Displacement     0.024600     0.001800     NO 
 RMS     Displacement     0.007803     0.001200     NO 
 Predicted change in Energy=-2.828636D-05
 GradGradGradGradGradGradGradGradGradGradGradGradGradGradGradGradGradGrad

                          Input orientation:                          
 ---------------------------------------------------------------------
 Center     Atomic      Atomic             Coordinates (Angstroms)
 Number     Number       Type             X           Y           Z
 ---------------------------------------------------------------------
      1         14           0       -1.915961   -0.042307   -0.133484
      2          8           0       -2.781535    1.331720   -0.375249
      3          8           0       -2.976949   -1.299952   -0.093734
      4          8           0       -0.630379   -0.330262   -1.095950
      5         40           0        1.058916   -0.007875    0.051191
      6          1           0       -3.581100    1.237516   -0.903524
      7          1           0       -2.608124   -2.143591   -0.379342
      8          8           0       -1.101615    0.197677    1.328717
      9          1           0       -1.232659    1.050329    1.763875
     10          8           0        1.435610   -1.480947    1.301166
     11          1           0        1.141835   -1.653022    2.201335
     12          8           0        1.162773    1.806104    0.848774
     13          1           0        1.827877    2.480705    0.671729
     14          8           0        2.544717   -0.071917   -1.217726
     15          1           0        3.338395   -0.567518   -1.434818
 ---------------------------------------------------------------------
                    Distance matrix (angstroms):
                    1          2          3          4          5
     1  Si   0.000000
     2  O    1.641833   0.000000
     3  O    1.645888   2.653890   0.000000
     4  O    1.631558   2.812306   2.729676   0.000000
     5  Zr   2.980803   4.089674   4.240127   2.067265   0.000000
     6  H    2.236872   0.962941   2.731209   3.346896   4.898187
     7  H    2.225967   3.479637   0.964018   2.777258   4.265422
     8  O    1.690794   2.647958   2.789827   2.525825   2.518377
     9  H    2.293628   2.655946   3.466566   3.232240   3.050312
    10  O    3.919303   5.339079   4.631326   3.367276   1.968318
    11  H    4.170839   5.562400   4.728253   3.970204   2.708597
    12  O    3.722910   4.157022   5.260533   3.400206   1.984300
    13  H    4.585879   4.864464   6.161628   4.131495   2.677574
    14  O    4.590654   5.572155   5.767168   3.187915   1.954956
    15  H    5.438527   6.494869   6.497579   3.990274   2.778029
                    6          7          8          9         10
     6  H    0.000000
     7  H    3.557153   0.000000
     8  O    3.494569   3.266278   0.000000
     9  H    3.558825   4.084900   0.966205   0.000000
    10  O    6.117032   4.428881   3.042375   3.706901   0.000000
    11  H    6.348344   4.578509   3.036382   3.624596   0.962401
    12  O    5.089025   5.597145   2.818659   2.673332   3.329235
    13  H    5.769227   6.493610   3.771708   3.550442   4.030479
    14  O    6.272079   5.616626   4.455647   4.941452   3.091974
    15  H    7.170763   6.241724   5.285484   5.808924   3.455511
                   11         12         13         14         15
    11  H    0.000000
    12  O    3.714218   0.000000
    13  H    4.460723   0.963740   0.000000
    14  O    4.019695   3.115630   3.255730   0.000000
    15  H    4.384609   3.947430   4.001358   0.960560   0.000000
 Stoichiometry    H6O7SiZr
 Framework group  C1[X(H6O7SiZr)]
 Deg. of freedom    39
 Full point group                 C1      NOp   1
 Largest Abelian subgroup         C1      NOp   1
 Largest concise Abelian subgroup C1      NOp   1
                         Standard orientation:                         
 ---------------------------------------------------------------------
 Center     Atomic      Atomic             Coordinates (Angstroms)
 Number     Number       Type             X           Y           Z
 ---------------------------------------------------------------------
      1         14           0       -1.884058   -0.040684   -0.138402
      2          8           0       -2.751847    1.337648   -0.345180
      3          8           0       -2.947940   -1.294653   -0.070101
      4          8           0       -0.631648   -0.328552   -1.143679
      5         40           0        1.095369   -0.017956   -0.050736
      6          1           0       -3.568567    1.248953   -0.847531
      7          1           0       -2.591823   -2.138206   -0.371648
      8          8           0       -1.021555    0.189130    1.297585
      9          1           0       -1.135108    1.040096    1.740884
     10          8           0        1.507047   -1.498531    1.179181
     11          1           0        1.242137   -1.673975    2.087618
     12          8           0        1.232050    1.791680    0.751750
     13          1           0        1.893576    2.464729    0.556343
     14          8           0        2.538742   -0.081128   -1.367754
     15          1           0        3.323036   -0.578529   -1.613011
 ---------------------------------------------------------------------
 Rotational constants (GHZ):           1.7747832           0.6210700           0.5928744
 Basis read from rwf:  (5D, 7F)
 Pseudo-potential data read from rwf file.
 There are   178 symmetry adapted cartesian basis functions of A   symmetry.
 There are   168 symmetry adapted basis functions of A   symmetry.
   168 basis functions,   339 primitive gaussians,   178 cartesian basis functions
    44 alpha electrons       44 beta electrons
       nuclear repulsion energy       665.7764427020 Hartrees.
 NAtoms=   15 NActive=   15 NUniq=   15 SFac= 1.00D+00 NAtFMM=   60 NAOKFM=F Big=F
 Integral buffers will be    131072 words long.
 Raffenetti 2 integral format.
 Two-electron integral symmetry is turned on.
 One-electron integrals computed using PRISM.
   1 Symmetry operations used in ECPInt.
 ECPInt:  NShTT=    1770 NPrTT=   10201 LenC2=    1668 LenP2D=    6760.
 LDataN:  DoStor=T MaxTD1= 5 Len=  102
 NBasis=   168 RedAO= T EigKep=  8.09D-03  NBF=   168
 NBsUse=   168 1.00D-06 EigRej= -1.00D+00 NBFU=   168
 Defaulting to unpruned grid for atomic number  40.
 Initial guess from the checkpoint file:  "/localscratch/sarashs.33453153.0/Gau-13139.chk"
 B after Tr=    -0.000000    0.000000    0.000000
         Rot=    0.999999   -0.001156   -0.000435   -0.000299 Ang=  -0.15 deg.
 ExpMin= 2.43D-02 ExpMax= 1.61D+04 ExpMxC= 2.43D+03 IAcc=3 IRadAn=         5 AccDes= 0.00D+00
 Harris functional with IExCor=  402 and IRadAn=       5 diagonalized for initial guess.
 HarFok:  IExCor=  402 AccDes= 0.00D+00 IRadAn=         5 IDoV= 1 UseB2=F ITyADJ=14
 ICtDFT=  3500011 ScaDFX=  1.000000  1.000000  1.000000  1.000000
 Defaulting to unpruned grid for atomic number  40.
 FoFCou: FMM=F IPFlag=           0 FMFlag=      100000 FMFlg1=           0
         NFxFlg=           0 DoJE=T BraDBF=F KetDBF=T FulRan=T
         wScrn=  0.000000 ICntrl=       500 IOpCl=  0 I1Cent=   200000004 NGrid=           0
         NMat0=    1 NMatS0=      1 NMatT0=    0 NMatD0=    1 NMtDS0=    0 NMtDT0=    0
 Petite list used in FoFCou.
 Requested convergence on RMS density matrix=1.00D-08 within 128 cycles.
 Requested convergence on MAX density matrix=1.00D-06.
 Requested convergence on             energy=1.00D-06.
 No special actions if energy rises.
 Defaulting to unpruned grid for atomic number  40.
 Defaulting to unpruned grid for atomic number  40.
 Defaulting to unpruned grid for atomic number  40.
 Defaulting to unpruned grid for atomic number  40.
 Defaulting to unpruned grid for atomic number  40.
 Defaulting to unpruned grid for atomic number  40.
 Defaulting to unpruned grid for atomic number  40.
 Defaulting to unpruned grid for atomic number  40.
 Defaulting to unpruned grid for atomic number  40.
 Defaulting to unpruned grid for atomic number  40.
 Defaulting to unpruned grid for atomic number  40.
 Defaulting to unpruned grid for atomic number  40.
 Defaulting to unpruned grid for atomic number  40.
 Defaulting to unpruned grid for atomic number  40.
 Defaulting to unpruned grid for atomic number  40.
 Defaulting to unpruned grid for atomic number  40.
 SCF Done:  E(RB3LYP) =  -866.688635142     A.U. after    9 cycles
            NFock=  9  Conv=0.59D-08     -V/T= 2.0445
   1 Symmetry operations used in ECPInt.
 ECPInt:  NShTT=    1770 NPrTT=   10201 LenC2=    1668 LenP2D=    6760.
 LDataN:  DoStor=T MaxTD1= 6 Len=  172
 Calling FoFJK, ICntrl=      2127 FMM=F ISym2X=0 I1Cent= 0 IOpClX= 0 NMat=1 NMatS=1 NMatT=0.
 Defaulting to unpruned grid for atomic number  40.
 Defaulting to unpruned grid for atomic number  40.
 Defaulting to unpruned grid for atomic number  40.
 Defaulting to unpruned grid for atomic number  40.
 Defaulting to unpruned grid for atomic number  40.
 Defaulting to unpruned grid for atomic number  40.
 Defaulting to unpruned grid for atomic number  40.
 Defaulting to unpruned grid for atomic number  40.
 Defaulting to unpruned grid for atomic number  40.
 Defaulting to unpruned grid for atomic number  40.
 Defaulting to unpruned grid for atomic number  40.
 Defaulting to unpruned grid for atomic number  40.
 Defaulting to unpruned grid for atomic number  40.
 Defaulting to unpruned grid for atomic number  40.
 Defaulting to unpruned grid for atomic number  40.
 Defaulting to unpruned grid for atomic number  40.
 ***** Axes restored to original set *****
 -------------------------------------------------------------------
 Center     Atomic                   Forces (Hartrees/Bohr)
 Number     Number              X              Y              Z
 -------------------------------------------------------------------
      1       14          -0.002629561   -0.001237520   -0.004595914
      2        8          -0.000080566    0.000154353    0.000032724
      3        8           0.000026814   -0.000056217    0.000201691
      4        8           0.000729988    0.001973134    0.007096768
      5       40           0.001135854   -0.000579231   -0.003018019
      6        1           0.000000964    0.000033208   -0.000028968
      7        1          -0.000027111    0.000019213   -0.000095652
      8        8           0.000077428   -0.000404446    0.000432760
      9        1           0.000241545    0.000109889   -0.000235535
     10        8           0.000198272   -0.000339686    0.000121309
     11        1          -0.000001631    0.000058846    0.000124965
     12        8           0.000113640    0.000374936    0.000221342
     13        1           0.000125236   -0.000069293   -0.000105827
     14        8           0.000093005   -0.000136787    0.000023530
     15        1          -0.000003878    0.000099603   -0.000175175
 -------------------------------------------------------------------
 Cartesian Forces:  Max     0.007096768 RMS     0.001461772

 GradGradGradGradGradGradGradGradGradGradGradGradGradGradGradGradGradGrad
 Berny optimization.
 Using GEDIIS/GDIIS optimizer.
 FormGI is forming the generalized inverse of G from B-inverse, IUseBI=4.
 Internal  Forces:  Max     0.003983327 RMS     0.000927044
 Search for a local minimum.
 Step number   3 out of a maximum of   83
 All quantities printed in internal units (Hartrees-Bohrs-Radians)
 Mixed Optimization -- En-DIIS/RFO-DIIS
 Swapping is turned off.
 Update second derivatives using D2CorX and points    1    2    3
 DE= -3.00D-05 DEPred=-2.83D-05 R= 1.06D+00
 TightC=F SS=  1.41D+00  RLast= 3.86D-02 DXNew= 5.0454D-01 1.1594D-01
 Trust test= 1.06D+00 RLast= 3.86D-02 DXMaxT set to 3.00D-01
 ITU=  1  1  0
     Eigenvalues ---    0.00226   0.00230   0.00233   0.00718   0.02549
     Eigenvalues ---    0.03712   0.03781   0.04422   0.04645   0.06916
     Eigenvalues ---    0.07728   0.11296   0.11698   0.14927   0.15508
     Eigenvalues ---    0.15698   0.16000   0.16000   0.16000   0.16030
     Eigenvalues ---    0.16050   0.17860   0.19086   0.19414   0.19959
     Eigenvalues ---    0.21544   0.22891   0.29949   0.35963   0.37342
     Eigenvalues ---    0.43325   0.43845   0.54292   0.54626   0.54694
     Eigenvalues ---    0.54847   0.54918   0.553451000.000001000.00000
     Eigenvalues --- 1000.000001000.000001000.000001000.000001000.00000
     Eigenvalues --- 1000.000001000.000001000.000001000.000001000.00000
     Eigenvalues --- 1000.000001000.000001000.000001000.000001000.00000
     Eigenvalues --- 1000.000001000.000001000.000001000.000001000.00000
     Eigenvalues --- 1000.000001000.000001000.000001000.000001000.00000
     Eigenvalues --- 1000.000001000.000001000.000001000.000001000.00000
     Eigenvalues --- 1000.000001000.000001000.00000
 En-DIIS/RFO-DIIS/Sim-DIIS IScMMF=       -3 using points:     3    2    1
 RFO step:  Lambda=-2.24917517D-05.
 DidBck=F Rises=F RFO-DIIS coefs:    0.96704   -0.11564    0.14860
 Iteration  1 RMS(Cart)=  0.00436162 RMS(Int)=  0.00001142
 Iteration  2 RMS(Cart)=  0.00001044 RMS(Int)=  0.00000273
 Iteration  3 RMS(Cart)=  0.00000000 RMS(Int)=  0.00000273
 Iteration  1 RMS(Cart)=  0.00000001 RMS(Int)=  0.00000001
 Variable       Old X    -DE/DX   Delta X   Delta X   Delta X     New X
                                 (Linear)    (Quad)   (Total)
    R1        3.10261   0.00020   0.00014   0.00043   0.00057   3.10319
    R2        3.11028   0.00003   0.00006   0.00019   0.00025   3.11053
    R3        3.08320  -0.00331  -0.00098  -0.00045  -0.00144   3.08176
    R4        5.63290   0.00317  -0.00498   0.00264  -0.00234   5.63056
    R5        3.19514   0.00028   0.00004   0.00079   0.00084   3.19598
    R6        1.81969   0.00001  -0.00000   0.00001   0.00001   1.81971
    R7        1.82173   0.00000  -0.00001  -0.00000  -0.00002   1.82171
    R8        3.90656  -0.00295  -0.00499   0.00349  -0.00150   3.90507
    R9        3.71958   0.00040  -0.00024   0.00114   0.00091   3.72049
   R10        3.74978   0.00034  -0.00130   0.00063  -0.00067   3.74911
   R11        3.69433   0.00017  -0.00078  -0.00095  -0.00173   3.69261
   R12        1.82586  -0.00004  -0.00017   0.00009  -0.00007   1.82579
   R13        1.81867   0.00011   0.00006   0.00024   0.00030   1.81897
   R14        1.82120   0.00006  -0.00000   0.00010   0.00010   1.82130
   R15        1.81519  -0.00001   0.00001  -0.00004  -0.00004   1.81516
    A1        1.87883   0.00007   0.00010   0.00071   0.00081   1.87964
    A2        2.06717   0.00060  -0.00016   0.00140   0.00124   2.06841
    A3        2.12423   0.00001   0.00034  -0.00258  -0.00224   2.12199
    A4        1.83639  -0.00005   0.00072  -0.00051   0.00021   1.83660
    A5        1.96852   0.00101   0.00022   0.00019   0.00041   1.96893
    A6        2.27927  -0.00010  -0.00045   0.00198   0.00153   2.28080
    A7        1.98018  -0.00031   0.00096  -0.00215  -0.00119   1.97899
    A8        1.72713  -0.00155  -0.00183  -0.00005  -0.00188   1.72525
    A9        1.00523   0.00069  -0.00155  -0.00000  -0.00155   1.00367
   A10        2.02269   0.00005   0.00006   0.00022   0.00027   2.02296
   A11        1.99864  -0.00000   0.00002  -0.00004  -0.00002   1.99862
   A12        1.86400   0.00398   0.00000   0.00000   0.00000   1.86400
   A13        1.79435   0.00052  -0.00107   0.00354   0.00247   1.79682
   A14        1.65861   0.00082  -0.00106   0.00393   0.00288   1.66148
   A15        2.37160  -0.00110   0.00073  -0.00288  -0.00215   2.36945
   A16        1.97368  -0.00011  -0.00009   0.00129   0.00121   1.97488
   A17        1.99147  -0.00017  -0.00060   0.00275   0.00216   1.99363
   A18        1.82944   0.00064   0.00035  -0.00241  -0.00206   1.82739
   A19        2.00301  -0.00016  -0.00125   0.00245   0.00120   2.00421
   A20        1.81546   0.00016   0.00104  -0.00249  -0.00145   1.81401
   A21        1.82457  -0.00023   0.00101  -0.00328  -0.00227   1.82230
   A22        2.03691  -0.00011  -0.00040  -0.00088  -0.00128   2.03563
   A23        2.30416  -0.00009   0.00064  -0.00215  -0.00151   2.30266
   A24        2.21703  -0.00030   0.00064  -0.00382  -0.00318   2.21384
   A25        2.48418   0.00035  -0.00068   0.00356   0.00288   2.48706
    D1       -0.55378  -0.00050   0.00028  -0.00214  -0.00186  -0.55564
    D2        1.70445   0.00152   0.00056   0.00001   0.00058   1.70503
    D3        2.54771  -0.00093   0.00015   0.00049   0.00064   2.54835
    D4       -2.67076  -0.00014  -0.00129   0.00028  -0.00100  -2.67176
    D5        2.65073   0.00031  -0.00034   0.00017  -0.00016   2.65057
    D6        0.33796  -0.00139  -0.00039  -0.00250  -0.00289   0.33507
    D7       -0.44594   0.00079  -0.00022  -0.00263  -0.00285  -0.44879
    D8       -1.60795   0.00012   0.00116  -0.00122  -0.00006  -1.60801
    D9        2.58467   0.00036  -0.00069  -0.00187  -0.00256   2.58211
   D10        0.54571   0.00018   0.00114  -0.00637  -0.00523   0.54048
   D11       -1.49504   0.00024   0.00036  -0.00416  -0.00379  -1.49883
   D12       -0.60725  -0.00017  -0.00084   0.00136   0.00052  -0.60673
   D13       -2.64621  -0.00036   0.00099  -0.00314  -0.00214  -2.64835
   D14        1.59623  -0.00029   0.00022  -0.00092  -0.00070   1.59553
   D15        1.04060  -0.00000  -0.00046  -0.00286  -0.00332   1.03727
   D16       -0.99836  -0.00019   0.00138  -0.00736  -0.00599  -1.00435
   D17       -3.03911  -0.00012   0.00060  -0.00515  -0.00455  -3.04366
   D18       -0.02729  -0.00017   0.00169  -0.00753  -0.00584  -0.03313
   D19       -2.07668  -0.00006   0.00059  -0.00692  -0.00633  -2.08301
   D20        2.11693  -0.00019   0.00100  -0.00620  -0.00520   2.11174
   D21        2.03564  -0.00015   0.00173  -0.01030  -0.00857   2.02707
[...]
 ! A14   A(1,5,12)              95.193          -DE/DX =    0.0005              !
 ! A15   A(1,5,14)             135.3289         -DE/DX =   -0.0007              !
 ! A16   A(4,5,10)             113.0017         -DE/DX =   -0.0001              !
 ! A17   A(4,5,12)             114.5362         -DE/DX =   -0.0004              !
 ! A18   A(4,5,14)             104.392          -DE/DX =    0.0007              !
 ! A19   A(10,5,12)            114.7123         -DE/DX =   -0.0001              !
 ! A20   A(10,5,14)            104.348          -DE/DX =    0.0001              !
 ! A21   A(12,5,14)            104.2581         -DE/DX =   -0.0001              !
 ! A22   A(1,8,9)              116.5614         -DE/DX =    0.0                 !
 ! A23   A(5,10,11)            131.8043         -DE/DX =    0.0                 !
 ! A24   A(5,12,13)            126.1704         -DE/DX =    0.0                 !
 ! A25   A(5,14,15)            145.5002         -DE/DX =    0.0                 !
 ! D1    D(3,1,2,6)            -32.085          -DE/DX =   -0.0004              !
 ! D2    D(4,1,2,6)             97.6422         -DE/DX =    0.0013              !
 ! D3    D(5,1,2,6)            145.9432         -DE/DX =   -0.0009              !
 ! D4    D(8,1,2,6)           -153.2828         -DE/DX =    0.0                 !
 ! D5    D(2,1,3,7)            151.1532         -DE/DX =    0.0003              !
 ! D6    D(4,1,3,7)             18.3867         -DE/DX =   -0.0011              !
 ! D7    D(5,1,3,7)            -26.6322         -DE/DX =    0.0008              !
 ! D8    D(8,1,3,7)            -92.8866         -DE/DX =    0.0                 !
 ! D9    D(2,1,5,10)           148.6237         -DE/DX =    0.0004              !
 ! D10   D(2,1,5,12)            31.7284         -DE/DX =    0.0002              !
 ! D11   D(2,1,5,14)           -84.6118         -DE/DX =    0.0002              !
 ! D12   D(3,1,5,10)           -33.8502         -DE/DX =   -0.0002              !
 ! D13   D(3,1,5,12)          -150.7455         -DE/DX =   -0.0003              !
 ! D14   D(3,1,5,14)            92.9143         -DE/DX =   -0.0003              !
 ! D15   D(8,1,5,10)            60.2188         -DE/DX =    0.0001              !
 ! D16   D(8,1,5,12)           -56.6764         -DE/DX =    0.0                 !
 ! D17   D(8,1,5,14)          -173.0167         -DE/DX =    0.0                 !
 ! D18   D(2,1,8,9)             -3.24           -DE/DX =   -0.0001              !
 ! D19   D(3,1,8,9)           -120.7505         -DE/DX =    0.0001              !
 ! D20   D(4,1,8,9)            119.5358         -DE/DX =   -0.0001              !
 ! D21   D(5,1,8,9)            114.7817         -DE/DX =    0.0001              !
 ! D22   D(1,5,10,11)          -59.1894         -DE/DX =   -0.0007              !
 ! D23   D(4,5,10,11)          -90.858          -DE/DX =    0.0008              !
 ! D24   D(12,5,10,11)          42.9292         -DE/DX =    0.0                 !
 ! D25   D(14,5,10,11)         156.3553         -DE/DX =   -0.0001              !
 ! D26   D(1,5,12,13)         -142.6004         -DE/DX =    0.0006              !
 ! D27   D(4,5,12,13)         -116.595          -DE/DX =   -0.0006              !
 ! D28   D(10,5,12,13)         110.3318         -DE/DX =    0.0                 !
 ! D29   D(14,5,12,13)          -3.1471         -DE/DX =    0.0                 !
 ! D30   D(1,5,14,15)         -120.9028         -DE/DX =    0.0001              !
 ! D31   D(4,5,14,15)         -113.3491         -DE/DX =   -0.0002              !
 ! D32   D(10,5,14,15)           5.47           -DE/DX =    0.0001              !
 ! D33   D(12,5,14,15)         126.1497         -DE/DX =    0.0                 !
 --------------------------------------------------------------------------------
 GradGradGradGradGradGradGradGradGradGradGradGradGradGradGradGradGradGrad

                          Input orientation:                          
 ---------------------------------------------------------------------
 Center     Atomic      Atomic             Coordinates (Angstroms)
 Number     Number       Type             X           Y           Z
 ---------------------------------------------------------------------
      1         14           0       -1.917643   -0.046235   -0.136728
      2          8           0       -2.775510    1.330431   -0.391504
      3          8           0       -2.981745   -1.300529   -0.088439
      4          8           0       -0.627626   -0.344606   -1.087521
      5         40           0        1.054285   -0.014768    0.066961
      6          1           0       -3.571866    1.238817   -0.925012
      7          1           0       -2.617216   -2.145123   -0.376798
      8          8           0       -1.106846    0.201927    1.328644
      9          1           0       -1.217162    1.068486    1.742257
     10          8           0        1.434013   -1.491711    1.313281
     11          1           0        1.161085   -1.650122    2.222653
     12          8           0        1.160187    1.798407    0.871137
     13          1           0        1.834383    2.462963    0.689249
     14          8           0        2.534147   -0.063393   -1.206265
     15          1           0        3.319312   -0.537882   -1.488957
 ---------------------------------------------------------------------
                    Distance matrix (angstroms):
                    1          2          3          4          5
     1  Si   0.000000
     2  O    1.641967   0.000000
     3  O    1.645569   2.656376   0.000000
     4  O    1.630085   2.811333   2.730170   0.000000
     5  Zr   2.979066   4.084982   4.238734   2.066506   0.000000
     6  H    2.238125   0.962915   2.737951   3.346967   4.894564
     7  H    2.225391   3.479188   0.964039   2.775870   4.267933
     8  O    1.693012   2.648937   2.789399   2.523134   2.511830
     9  H    2.294310   2.655183   3.475260   3.217456   3.023164
    10  O    3.927533   5.347042   4.636840   3.366015   1.969484
    11  H    4.197344   5.586975   4.756722   3.982601   2.707914
    12  O    3.727134   4.159684   5.261159   3.409563   1.986333
    13  H    4.588683   4.868447   6.161474   4.135317   2.671132
    14  O    4.578497   5.549688   5.762387   3.176475   1.952809
    15  H    5.431016   6.468528   6.499723   3.972006   2.797298
                    6          7          8          9         10
     6  H    0.000000
     7  H    3.558504   0.000000
     8  O    3.497203   3.270840   0.000000
     9  H    3.562017   4.096074   0.966524   0.000000
    10  O    6.125729   4.437991   3.053622   3.710438   0.000000
    11  H    6.376095   4.612779   3.061511   3.643854   0.962569
    12  O    5.092309   5.601566   2.810249   2.635037   3.330968
    13  H    5.773378   6.495202   3.764564   3.516436   4.023575
    14  O    6.249660   5.617665   4.444434   4.903799   3.098145
    15  H    7.138839   6.249999   5.298780   5.796616   3.509513
                   11         12         13         14         15
    11  H    0.000000
    12  O    3.703910   0.000000
    13  H    4.440961   0.963981   0.000000
    14  O    4.020011   3.109608   3.234983   0.000000
    15  H    4.435208   3.961074   3.994329   0.959968   0.000000
 Stoichiometry    H6O7SiZr
 Framework group  C1[X(H6O7SiZr)]
 Deg. of freedom    39
 Full point group                 C1      NOp   1
 Largest Abelian subgroup         C1      NOp   1
 Largest concise Abelian subgroup C1      NOp   1
                         Standard orientation:                         
 ---------------------------------------------------------------------
 Center     Atomic      Atomic             Coordinates (Angstroms)
 Number     Number       Type             X           Y           Z
 ---------------------------------------------------------------------
      1         14           0       -1.884207   -0.039200   -0.138766
      2          8           0       -2.745860    1.343612   -0.342335
      3          8           0       -2.950537   -1.290425   -0.066132
      4          8           0       -0.632758   -0.329287   -1.142211
      5         40           0        1.093444   -0.020471   -0.048912
      6          1           0       -3.562434    1.261772   -0.846037
      7          1           0       -2.600613   -2.132346   -0.379331
      8          8           0       -1.016870    0.186766    1.297534
      9          1           0       -1.107882    1.048130    1.726413
     10          8           0        1.514937   -1.515088    1.162423
     11          1           0        1.276461   -1.684624    2.079443
     12          8           0        1.237137    1.781511    0.774333
     13          1           0        1.906440    2.446141    0.575437
     14          8           0        2.523206   -0.057200   -1.378534
     15          1           0        3.295108   -0.530546   -1.697359
 ---------------------------------------------------------------------
 Rotational constants (GHZ):           1.7706230           0.6218664           0.5938467

 **********************************************************************

            Population analysis using the SCF Density.

 **********************************************************************

 Orbital symmetries:
       Occupied  (A) (A) (A) (A) (A) (A) (A) (A) (A) (A) (A) (A)
                 (A) (A) (A) (A) (A) (A) (A) (A) (A) (A) (A) (A)
                 (A) (A) (A) (A) (A) (A) (A) (A) (A) (A) (A) (A)
                 (A) (A) (A) (A) (A) (A) (A) (A)
       Virtual   (A) (A) (A) (A) (A) (A) (A) (A) (A) (A) (A) (A)
                 (A) (A) (A) (A) (A) (A) (A) (A) (A) (A) (A) (A)
                 (A) (A) (A) (A) (A) (A) (A) (A) (A) (A) (A) (A)
                 (A) (A) (A) (A) (A) (A) (A) (A) (A) (A) (A) (A)
                 (A) (A) (A) (A) (A) (A) (A) (A) (A) (A) (A) (A)
                 (A) (A) (A) (A) (A) (A) (A) (A) (A) (A) (A) (A)
                 (A) (A) (A) (A) (A) (A) (A) (A) (A) (A) (A) (A)
                 (A) (A) (A) (A) (A) (A) (A) (A) (A) (A) (A) (A)
                 (A) (A) (A) (A) (A) (A) (A) (A) (A) (A) (A) (A)
                 (A) (A) (A) (A) (A) (A) (A) (A) (A) (A) (A) (A)
                 (A) (A) (A) (A)
 The electronic state is 1-A.
 Alpha  occ. eigenvalues --  -66.19874 -19.17092 -19.15490 -19.15423 -19.13459
 Alpha  occ. eigenvalues --  -19.13080 -19.13019 -19.12258  -5.34245  -3.70247
 Alpha  occ. eigenvalues --   -3.70171  -3.70094  -2.05725  -1.26437  -1.26304
 Alpha  occ. eigenvalues --   -1.25854  -1.03822  -1.01047  -1.00079  -0.95146
 Alpha  occ. eigenvalues --   -0.94444  -0.93934  -0.92992  -0.58194  -0.53623
 Alpha  occ. eigenvalues --   -0.52393  -0.48243  -0.47107  -0.46498  -0.43243
 Alpha  occ. eigenvalues --   -0.40073  -0.39681  -0.38026  -0.36122  -0.34789
 Alpha  occ. eigenvalues --   -0.34101  -0.33852  -0.33428  -0.32442  -0.31545
 Alpha  occ. eigenvalues --   -0.30702  -0.30306  -0.30225  -0.29646
 Alpha virt. eigenvalues --   -0.01695  -0.01133  -0.00249   0.00630   0.01620
 Alpha virt. eigenvalues --    0.02159   0.02932   0.03205   0.05203   0.08284
 Alpha virt. eigenvalues --    0.09411   0.12601   0.14350   0.15169   0.16173
 Alpha virt. eigenvalues --    0.16930   0.17982   0.18891   0.19508   0.23352
 Alpha virt. eigenvalues --    0.23838   0.24635   0.25116   0.26510   0.28866
 Alpha virt. eigenvalues --    0.30776   0.31864   0.33224   0.38238   0.38968
 Alpha virt. eigenvalues --    0.41303   0.55851   0.62818   0.73749   0.78850
 Alpha virt. eigenvalues --    0.80302   0.84196   0.86411   0.87432   0.89723
 Alpha virt. eigenvalues --    0.90563   0.91183   0.92747   0.94591   0.95465
 Alpha virt. eigenvalues --    0.96700   0.98109   1.00234   1.02377   1.03660
 Alpha virt. eigenvalues --    1.07455   1.07861   1.08807   1.10339   1.12545
 Alpha virt. eigenvalues --    1.13931   1.15138   1.18954   1.19680   1.21530
 Alpha virt. eigenvalues --    1.23915   1.25816   1.29874   1.39280   1.47602
 Alpha virt. eigenvalues --    1.48462   1.49955   1.51549   1.52827   1.56256
 Alpha virt. eigenvalues --    1.57652   1.58209   1.59702   1.61017   1.63186
 Alpha virt. eigenvalues --    1.63386   1.64677   1.68386   1.69303   1.70923
 Alpha virt. eigenvalues --    1.73189   1.75168   1.79991   1.80640   1.81768
 Alpha virt. eigenvalues --    1.82945   1.83713   1.85373   1.86750   1.88184
 Alpha virt. eigenvalues --    1.91067   1.92605   2.00498   2.08686   2.13499
 Alpha virt. eigenvalues --    2.35060   2.35575   2.36305   2.37635   2.38447
 Alpha virt. eigenvalues --    2.40069   2.43055   2.55732   2.58983   2.61683
 Alpha virt. eigenvalues --    2.62889   2.63857   2.64277   2.64394   2.64853
 Alpha virt. eigenvalues --    2.65189   2.65324   2.66216   2.66500   2.71970
 Alpha virt. eigenvalues --    2.77282   2.81779   3.40760   3.42247   3.42529
 Alpha virt. eigenvalues --    3.43975   3.45931   3.46377   4.40826
          Condensed to atoms (all electrons):
               1          2          3          4          5          6
     1  Si  11.575095   0.386547   0.394110   0.343071  -0.102724  -0.022218
     2  O    0.386547   7.952081  -0.020006  -0.010702   0.005916   0.304487
     3  O    0.394110  -0.020006   7.943555  -0.016965   0.000582  -0.001023
     4  O    0.343071  -0.010702  -0.016965   8.260486   0.195539  -0.000308
     5  Zr  -0.102724   0.005916   0.000582   0.195539   9.795586  -0.000898
     6  H   -0.022218   0.304487  -0.001023  -0.000308  -0.000898   0.379106
     7  H   -0.017342   0.000367   0.301715   0.001169  -0.003204  -0.000046
     8  O    0.256331  -0.018740  -0.012751  -0.037890   0.096975   0.000641
     9  H   -0.008711   0.001074  -0.000209   0.000616  -0.011640   0.000006
    10  O   -0.007687  -0.000000   0.000000   0.000119   0.227682  -0.000000
    11  H    0.000123  -0.000000  -0.000000  -0.000075  -0.017298   0.000000
    12  O   -0.009182  -0.000002  -0.000000   0.000239   0.228086   0.000000
    13  H    0.000490  -0.000002   0.000000  -0.000017  -0.017499  -0.000000
    14  O   -0.000872   0.000000  -0.000000   0.000587   0.210291   0.000000
    15  H    0.000013  -0.000000   0.000000  -0.000064  -0.014209  -0.000000
               7          8          9         10         11         12
     1  Si  -0.017342   0.256331  -0.008711  -0.007687   0.000123  -0.009182
     2  O    0.000367  -0.018740   0.001074  -0.000000  -0.000000  -0.000002
     3  O    0.301715  -0.012751  -0.000209   0.000000  -0.000000  -0.000000
     4  O    0.001169  -0.037890   0.000616   0.000119  -0.000075   0.000239
     5  Zr  -0.003204   0.096975  -0.011640   0.227682  -0.017298   0.228086
     6  H   -0.000046   0.000641   0.000006  -0.000000   0.000000   0.000000
     7  H    0.381697  -0.000135   0.000052  -0.000003  -0.000001  -0.000000
     8  O   -0.000135   8.079901   0.296787  -0.004170  -0.000806  -0.008253
     9  H    0.000052   0.296787   0.353727  -0.000190  -0.000034   0.002524
    10  O   -0.000003  -0.004170  -0.000190   8.175680   0.294770   0.000712
    11  H   -0.000001  -0.000806  -0.000034   0.294770   0.393270  -0.000304
    12  O   -0.000000  -0.008253   0.002524   0.000712  -0.000304   8.196100
    13  H    0.000000   0.000310  -0.000079  -0.000060  -0.000000   0.291563
    14  O   -0.000000  -0.000085   0.000008   0.000843   0.000016   0.000422
    15  H    0.000000  -0.000000  -0.000000  -0.000430   0.000001  -0.000095
              13         14         15
     1  Si   0.000490  -0.000872   0.000013
     2  O   -0.000002   0.000000  -0.000000
     3  O    0.000000  -0.000000   0.000000
     4  O   -0.000017   0.000587  -0.000064
     5  Zr  -0.017499   0.210291  -0.014209
     6  H   -0.000000   0.000000  -0.000000
     7  H    0.000000  -0.000000   0.000000
     8  O    0.000310  -0.000085  -0.000000
     9  H   -0.000079   0.000008  -0.000000
    10  O   -0.000060   0.000843  -0.000430
    11  H   -0.000000   0.000016   0.000001
    12  O    0.291563   0.000422  -0.000095
    13  H    0.398114  -0.001636   0.000002
    14  O   -0.001636   8.181280   0.299541
    15  H    0.000002   0.299541   0.382793
 Mulliken charges:
               1
     1  Si   1.212955
     2  O   -0.601019
     3  O   -0.589008
     4  O   -0.735806
     5  Zr   1.406815
     6  H    0.340252
     7  H    0.335729
     8  O   -0.648114
     9  H    0.366067
    10  O   -0.687266
    11  H    0.330339
    12  O   -0.701811
    13  H    0.328815
    14  O   -0.690396
    15  H    0.332449
 Sum of Mulliken charges =  -0.00000
 Mulliken charges with hydrogens summed into heavy atoms:
               1
     1  Si   1.212955
     2  O   -0.260768
     3  O   -0.253279
     4  O   -0.735806
     5  Zr   1.406815
     8  O   -0.282047
    10  O   -0.356927
    12  O   -0.372995
    14  O   -0.357948
 Electronic spatial extent (au):  <R**2>=           1868.4305
 Charge=              0.0000 electrons
 Dipole moment (field-independent basis, Debye):
    X=              0.0925    Y=             -0.0948    Z=              0.5122  Tot=              0.5291
 Quadrupole moment (field-independent basis, Debye-Ang):
   XX=            -64.7782   YY=            -69.7047   ZZ=            -71.8820
   XY=              1.1554   XZ=              1.5164   YZ=              1.2870
 Traceless Quadrupole moment (field-independent basis, Debye-Ang):
   XX=              4.0101   YY=             -0.9164   ZZ=             -3.0937
   XY=              1.1554   XZ=              1.5164   YZ=              1.2870
 Octapole moment (field-independent basis, Debye-Ang**2):
  XXX=             37.0770  YYY=             -4.0109  ZZZ=             16.9885  XYY=              7.7785
  XXY=             13.1590  XXZ=            -30.1915  XZZ=             10.0563  YZZ=             -5.2273
  YYZ=             -0.8688  XYZ=              3.0843
 Hexadecapole moment (field-independent basis, Debye-Ang**3):
 XXXX=          -1313.0552 YYYY=           -377.5619 ZZZZ=           -317.3809 XXXY=            -68.4329
 XXXZ=             13.4928 YYYX=             75.9842 YYYZ=              7.4368 ZZZX=             -0.9590
 ZZZY=            -12.5151 XXYY=           -280.4519 XXZZ=           -263.6163 YYZZ=           -111.1078
 XXYZ=             20.8856 YYXZ=              7.7860 ZZXY=            -32.6496
 N-N= 6.658583513044D+02 E-N=-3.367988350624D+03  KE= 8.297794394149D+02
 1\1\GINC-GRA602\FOpt\RB3LYP\Gen\H6O7Si1Zr1\SARASHS\24-Jun-2020\0\\#n B
 3LYP/GEN PSEUDO=READ Opt(modredundant)\\Title\\0,1\Si,-1.9176427124,-0
 .0462353316,-0.1367275668\O,-2.7755101249,1.3304307666,-0.3915036169\O
 ,-2.9817448826,-1.3005293151,-0.088438721\O,-0.6276260264,-0.344606228
 4,-1.0875209653\Zr,1.0542850095,-0.0147681894,0.0669612915\H,-3.571865
 5931,1.2388172428,-0.9250117087\H,-2.6172157614,-2.1451232842,-0.37679
 75611\O,-1.106846078,0.2019268269,1.3286443473\H,-1.2171615267,1.06848
 56752,1.7422566747\O,1.4340125967,-1.4917108538,1.3132813836\H,1.16108
 5363,-1.6501223879,2.2226528052\O,1.1601868206,1.7984070173,0.87113663
 93\H,1.8343834348,2.462963096,0.6892487243\O,2.5341471977,-0.063392952
 8,-1.2062649551\H,3.3193122832,-0.5378820818,-1.4889567711\\Version=ES
 64L-G16RevB.01\State=1-A\HF=-866.6886706\RMSD=7.880e-09\RMSF=1.228e-03
 \Dipole=0.0287471,-0.0344906,0.2032545\Quadrupole=2.8815219,-0.6496216
 ,-2.2319002,0.8511291,1.3121755,0.972973\PG=C01 [X(H6O7Si1Zr1)]\\@


      THE ONE-EYED VIEW OF OUR UNIVERSE SAYS YOU MUST NOT LOOK
      FAR AFIELD FOR PROBLEMS.  SUCH PROBLEMS MAY NEVER ARRIVE. 
      INSTEAD, TEND TO THE WOLF WITHIN YOUR FENCES.
      THE PACKS RANGING OUTSIDE MAY NOT EVEN EXIST.

                              -- THE AZHAR BOOK SHAMRA I:4
                                 CHILDREN OF DUNE, BY FRANK HERBERT
 Job cpu time:       0 days  0 hours 35 minutes  9.1 seconds.
 Elapsed time:       0 days  0 hours  2 minutes 17.6 seconds.
 File lengths (MBytes):  RWF=     23 Int=      0 D2E=      0 Chk=      3 Scr=      1
 Normal termination of Gaussian 16 at Wed Jun 24 13:52:47 2020.
