 Entering Gaussian System, Link 0=g16
 Initial command:
 /opt/software/gaussian/g16.b01/l1.exe "/localscratch/sarashs.33453165.0/Gau-4459.inp" -scrdir="/localscratch/sarashs.33453165.0/"
 Entering Link 1 = /opt/software/gaussian/g16.b01/l1.exe PID=      4460.
  
 Copyright (c) 1988-2017, Gaussian, Inc.  All Rights Reserved.
  
 This is part of the Gaussian(R) 16 program.  It is based on
 the Gaussian(R) 09 system (copyright 2009, Gaussian, Inc.),
 the Gaussian(R) 03 system (copyright 2003, Gaussian, Inc.),
 the Gaussian(R) 98 system (copyright 1998, Gaussian, Inc.),
 the Gaussian(R) 94 system (copyright 1995, Gaussian, Inc.),
 the Gaussian 92(TM) system (copyright 1992, Gaussian, Inc.),
 the Gaussian 90(TM) system (copyright 1990, Gaussian, Inc.),
 the Gaussian 88(TM) system (copyright 1988, Gaussian, Inc.),
 the Gaussian 86(TM) system (copyright 1986, Carnegie Mellon
 University), and the Gaussian 82(TM) system (copyright 1983,
 Carnegie Mellon University). Gaussian is a federally registered
 trademark of Gaussian, Inc.
  
 This software contains proprietary and confidential information,
 including trade secrets, belonging to Gaussian, Inc.
  
 This software is provided under written license and may be
 used, copied, transmitted, or stored only in accord with that
 written license.
  
 The following legend is applicable only to US Government
 contracts under FAR:
  
                    RESTRICTED RIGHTS LEGEND
  
 Use, reproduction and disclosure by the US Government is
 subject to restrictions as set forth in subparagraphs (a)
 and (c) of the Commercial Computer Software - Restricted
 Rights clause in FAR 52.227-19.
  
 Gaussian, Inc.
 340 Quinnipiac St., Bldg. 40, Wallingford CT 06492
  
  
 ---------------------------------------------------------------
 Warning -- This program may not be used in any manner that
 competes with the business of Gaussian, Inc. or will provide
 assistance to any competitor of Gaussian, Inc.  The licensee
 of this program is prohibited from giving any competitor of
 Gaussian, Inc. access to this program.  By using this program,
 the user acknowledges that Gaussian, Inc. is engaged in the
 business of creating and licensing software in the field of
 computational chemistry and represents and warrants to the
 licensee that it is not a competitor of Gaussian, Inc. and that
 it will not use this program in any manner prohibited above.
 ---------------------------------------------------------------
  

 Cite this work as:
 Gaussian 16, Revision B.01,
 M. J. Frisch, G. W. Trucks, H. B. Schlegel, G. E. Scuseria, 
 M. A. Robb, J. R. Cheeseman, G. Scalmani, V. Barone, 
 G. A. Petersson, H. Nakatsuji, X. Li, M. Caricato, A. V. Marenich, 
 J. Bloino, B. G. Janesko, R. Gomperts, B. Mennucci, H. P. Hratchian, 
 J. V. Ortiz, A. F. Izmaylov, J. L. Sonnenberg, D. Williams-Young, 
 F. Ding, F. Lipparini, F. Egidi, J. Goings, B. Peng, A. Petrone, 
 T. Henderson, D. Ranasinghe, V. G. Zakrzewski, J. Gao, N. Rega, 
 G. Zheng, W. Liang, M. Hada, M. Ehara, K. Toyota, R. Fukuda, 
 J. Hasegawa, M. Ishida, T. Nakajima, Y. Honda, O. Kitao, H. Nakai, 
 T. Vreven, K. Throssell, J. A. Montgomery, Jr., J. E. Peralta, 
 F. Ogliaro, M. J. Bearpark, J. J. Heyd, E. N. Brothers, K. N. Kudin, 
 V. N. Staroverov, T. A. Keith, R. Kobayashi, J. Normand, 
 K. Raghavachari, A. P. Rendell, J. C. Burant, S. S. Iyengar, 
 J. Tomasi, M. Cossi, J. M. Millam, M. Klene, C. Adamo, R. Cammi, 
 J. W. Ochterski, R. L. Martin, K. Morokuma, O. Farkas, 
 J. B. Foresman, and D. J. Fox, Gaussian, Inc., Wallingford CT, 2016.
 
 ******************************************
 Gaussian 16:  ES64L-G16RevB.01 20-Dec-2017
                24-Jun-2020 
 ******************************************
 %NProcShared=16
 Will use up to   16 processors via shared memory.
 ------------------------------------------
 #n B3LYP/GEN PSEUDO=READ Opt(modredundant)
 ------------------------------------------
 1/18=120,19=15,26=3,38=1/1,3;
 2/9=110,12=2,17=6,18=5,40=1/2;
 3/5=7,11=2,16=1,17=8,25=1,30=1,71=1,74=-5/1,2,3;
 4//1;
 5/5=2,38=5/2;
 6/7=2,8=2,9=2,10=2,28=1/1;
 7//1,2,3,16;
 1/18=20,19=15,26=3/3(2);
 2/9=110/2;
 99//99;
 2/9=110/2;
 3/5=7,6=1,11=2,16=1,17=8,25=1,30=1,71=1,74=-5,82=7/1,2,3;
 4/5=5,16=3,69=1/1;
 5/5=2,38=5/2;
 7//1,2,3,16;
 1/18=20,19=15,26=3/3(-5);
 2/9=110/2;
 6/7=2,8=2,9=2,10=2,19=2,28=1/1;
 99/9=1/99;
 -----
 Title
 -----
 Symbolic Z-matrix:
 Charge =  0 Multiplicity = 1
 Si                   -1.90698  -0.04093  -0.13187 
 O                    -2.77661   1.33183  -0.36828 
 O                    -2.96472  -1.30138  -0.09409 
 O                    -0.62539  -0.3216   -1.09659 
 Zr                    1.41048  -0.12864  -0.94431 
 H                    -3.57833   1.23701  -0.89318 
 H                    -2.59505  -2.1428   -0.38501 
 O                    -1.07346   0.19403   1.32035 
 H                    -1.20745   1.04108   1.76425 
 O                     2.25041  -1.59187   0.07012 
 H                     2.42729  -1.71209   1.00853 
 O                     2.0022    1.68332  -0.39924 
 H                     2.53927   2.30129  -0.9076 
 O                     2.07802  -0.35112  -2.76828 
 H                     2.63243  -0.92103  -3.30733 
 
 The following ModRedundant input section has been read:
 A       1       4       5 F                                                   
 

 GradGradGradGradGradGradGradGradGradGradGradGradGradGradGradGradGradGrad
 Berny optimization.
 Initialization pass.
                           ----------------------------
                           !    Initial Parameters    !
                           ! (Angstroms and Degrees)  !
 --------------------------                            --------------------------
 ! Name  Definition              Value          Derivative Info.                !
 --------------------------------------------------------------------------------
 ! R1    R(1,2)                  1.6421         estimate D2E/DX2                !
 ! R2    R(1,3)                  1.6459         estimate D2E/DX2                !
 ! R3    R(1,4)                  1.6285         estimate D2E/DX2                !
 ! R4    R(1,8)                  1.6908         estimate D2E/DX2                !
 ! R5    R(2,6)                  0.9629         estimate D2E/DX2                !
 ! R6    R(3,7)                  0.964          estimate D2E/DX2                !
 ! R7    R(4,5)                  2.0507         estimate D2E/DX2                !
 ! R8    R(5,10)                 1.9687         estimate D2E/DX2                !
 ! R9    R(5,12)                 1.9825         estimate D2E/DX2                !
 ! R10   R(5,14)                 1.955          estimate D2E/DX2                !
 ! R11   R(8,9)                  0.9657         estimate D2E/DX2                !
 ! R12   R(10,11)                0.9625         estimate D2E/DX2                !
 ! R13   R(12,13)                0.9637         estimate D2E/DX2                !
 ! R14   R(14,15)                0.9606         estimate D2E/DX2                !
 ! A1    A(2,1,3)              107.6477         estimate D2E/DX2                !
 ! A2    A(2,1,4)              118.3958         estimate D2E/DX2                !
 ! A3    A(2,1,8)              105.5776         estimate D2E/DX2                !
 ! A4    A(3,1,4)              112.7909         estimate D2E/DX2                !
 ! A5    A(3,1,8)              113.7977         estimate D2E/DX2                !
 ! A6    A(4,1,8)               98.3257         estimate D2E/DX2                !
 ! A7    A(1,2,6)              115.9167         estimate D2E/DX2                !
 ! A8    A(1,3,7)              114.5237         estimate D2E/DX2                !
 ! A9    A(1,4,5)              136.1457         Frozen                          !
 ! A10   A(4,5,10)             113.0729         estimate D2E/DX2                !
 ! A11   A(4,5,12)             113.7491         estimate D2E/DX2                !
 ! A12   A(4,5,14)             105.0109         estimate D2E/DX2                !
 ! A13   A(10,5,12)            114.2238         estimate D2E/DX2                !
 ! A14   A(10,5,14)            104.5066         estimate D2E/DX2                !
 ! A15   A(12,5,14)            104.9875         estimate D2E/DX2                !
 ! A16   A(1,8,9)              116.6352         estimate D2E/DX2                !
 ! A17   A(5,10,11)            132.35           estimate D2E/DX2                !
 ! A18   A(5,12,13)            127.3993         estimate D2E/DX2                !
 ! A19   A(5,14,15)            142.0124         estimate D2E/DX2                !
 ! D1    D(3,1,2,6)            -31.5445         estimate D2E/DX2                !
 ! D2    D(4,1,2,6)             97.8074         estimate D2E/DX2                !
 ! D3    D(8,1,2,6)           -153.4334         estimate D2E/DX2                !
 ! D4    D(2,1,3,7)            151.7162         estimate D2E/DX2                !
 ! D5    D(4,1,3,7)             19.2636         estimate D2E/DX2                !
 ! D6    D(8,1,3,7)            -91.6497         estimate D2E/DX2                !
 ! D7    D(2,1,4,5)            100.8625         estimate D2E/DX2                !
 ! D8    D(3,1,4,5)           -132.1989         estimate D2E/DX2                !
 ! D9    D(8,1,4,5)            -11.9451         estimate D2E/DX2                !
 ! D10   D(2,1,8,9)             -0.7356         estimate D2E/DX2                !
 ! D11   D(3,1,8,9)           -118.5698         estimate D2E/DX2                !
 ! D12   D(4,1,8,9)            121.931          estimate D2E/DX2                !
 ! D13   D(1,4,5,10)            78.783          estimate D2E/DX2                !
 ! D14   D(1,4,5,12)           -53.6451         estimate D2E/DX2                !
 ! D15   D(1,4,5,14)          -167.8813         estimate D2E/DX2                !
 ! D16   D(4,5,10,11)          -88.2379         estimate D2E/DX2                !
 ! D17   D(12,5,10,11)          43.9581         estimate D2E/DX2                !
 ! D18   D(14,5,10,11)         158.1207         estimate D2E/DX2                !
 ! D19   D(4,5,12,13)         -116.9744         estimate D2E/DX2                !
 ! D20   D(10,5,12,13)         111.1543         estimate D2E/DX2                !
 ! D21   D(14,5,12,13)          -2.7243         estimate D2E/DX2                !
 ! D22   D(4,5,14,15)         -117.1591         estimate D2E/DX2                !
 ! D23   D(10,5,14,15)           2.0823         estimate D2E/DX2                !
 ! D24   D(12,5,14,15)         122.6135         estimate D2E/DX2                !
 --------------------------------------------------------------------------------
 Trust Radius=3.00D-01 FncErr=1.00D-07 GrdErr=1.00D-06 EigMax=2.50D+02 EigMin=1.00D-04
 Number of steps in this run=     67 maximum allowed number of steps=    100.
 GradGradGradGradGradGradGradGradGradGradGradGradGradGradGradGradGradGrad

                          Input orientation:                          
 ---------------------------------------------------------------------
 Center     Atomic      Atomic             Coordinates (Angstroms)
 Number     Number       Type             X           Y           Z
 ---------------------------------------------------------------------
      1         14           0       -1.906980   -0.040930   -0.131870
      2          8           0       -2.776610    1.331830   -0.368280
      3          8           0       -2.964720   -1.301380   -0.094090
      4          8           0       -0.625390   -0.321600   -1.096590
      5         40           0        1.410480   -0.128640   -0.944310
      6          1           0       -3.578330    1.237010   -0.893180
      7          1           0       -2.595050   -2.142800   -0.385010
      8          8           0       -1.073460    0.194030    1.320350
      9          1           0       -1.207450    1.041080    1.764250
     10          8           0        2.250410   -1.591870    0.070120
     11          1           0        2.427290   -1.712090    1.008530
     12          8           0        2.002200    1.683320   -0.399240
     13          1           0        2.539270    2.301290   -0.907600
     14          8           0        2.078020   -0.351120   -2.768280
     15          1           0        2.632430   -0.921030   -3.307330
 ---------------------------------------------------------------------
                    Distance matrix (angstroms):
                    1          2          3          4          5
     1  Si   0.000000
     2  O    1.642138   0.000000
     3  O    1.645897   2.654121   0.000000
     4  O    1.628476   2.809273   2.727167   0.000000
     5  Zr   3.416620   4.471745   4.608749   2.050656   0.000000
     6  H    2.237439   0.962946   2.731023   3.345220   5.172605
     7  H    2.226068   3.479411   0.963991   2.775370   4.518177
     8  O    1.690830   2.654577   2.795310   2.511621   3.376797
     9  H    2.292457   2.663547   3.468219   3.221816   3.944376
    10  O    4.441858   5.831908   5.225795   3.353360   1.968652
    11  H    4.783219   6.183982   5.518897   3.960284   2.711974
    12  O    4.280913   4.791819   5.802745   3.377903   1.982532
    13  H    5.084967   5.430405   6.628343   4.114650   2.679566
    14  O    4.788225   5.670957   5.786494   3.178655   1.954987
    15  H    5.609311   6.555235   6.465111   3.982471   2.775771
                    6          7          8          9         10
     6  H    0.000000
     7  H    3.556430   0.000000
     8  O    3.501699   3.268679   0.000000
     9  H    3.566706   4.084341   0.965657   0.000000
    10  O    6.550169   4.897872   3.975000   4.664686   0.000000
    11  H    6.955657   5.229853   3.998222   4.621947   0.962472
    12  O    5.620096   5.981146   3.825527   3.923648   3.317948
    13  H    6.209503   6.810600   4.738789   4.771250   4.024434
    14  O    6.167046   5.543255   5.190945   5.768567   3.102530
    15  H    7.004199   6.112219   6.032612   6.656987   3.464554
                   11         12         13         14         15
    11  H    0.000000
    12  O    3.700179   0.000000
    13  H    4.448743   0.963722   0.000000
    14  O    4.029705   3.123627   3.272638   0.000000
    15  H    4.392551   3.954341   4.018797   0.960595   0.000000
 Stoichiometry    H6O7SiZr
 Framework group  C1[X(H6O7SiZr)]
 Deg. of freedom    39
 Full point group                 C1      NOp   1
 Largest Abelian subgroup         C1      NOp   1
 Largest concise Abelian subgroup C1      NOp   1
                         Standard orientation:                         
 ---------------------------------------------------------------------
 Center     Atomic      Atomic             Coordinates (Angstroms)
 Number     Number       Type             X           Y           Z
 ---------------------------------------------------------------------
      1         14           0       -2.137569   -0.045036   -0.081228
      2          8           0       -2.965830    1.269827   -0.612016
      3          8           0       -3.125413   -1.352520   -0.234934
      4          8           0       -0.643699   -0.310052   -0.672880
      5         40           0        1.278396   -0.009883   -0.024313
      6          1           0       -3.603790    1.109679   -1.315312
      7          1           0       -2.664729   -2.188190   -0.371695
      8          8           0       -1.709719    0.302655    1.517196
      9          1           0       -1.981749    1.163148    1.860773
     10          8           0        1.883153   -1.377706    1.255890
     11          1           0        1.819531   -1.442199    2.214089
     12          8           0        1.648285    1.853874    0.541394
     13          1           0        2.275101    2.471417    0.148325
     14          8           0        2.395408   -0.289837   -1.604150
     15          1           0        3.088286   -0.857937   -1.950452
 ---------------------------------------------------------------------
 Rotational constants (GHZ):           1.6980019           0.5079137           0.4955551
 General basis read from cards:  (5D, 7F)
 ======================================================================================================
                                       Pseudopotential Parameters
 ======================================================================================================
  Center     Atomic      Valence      Angular      Power
  Number     Number     Electrons     Momentum     of R      Exponent        Coefficient   SO-Coeffient
 ======================================================================================================
    1         14
                                   No pseudopotential on this center.
    2          8
                                   No pseudopotential on this center.
    3          8
                                   No pseudopotential on this center.
    4          8
                                   No pseudopotential on this center.
    5         40           12
                                      F and up 
                                                     0      645.9321873       -0.04258430    0.00000000
                                                     1      134.7547401      -20.22224090    0.00000000
                                                     2       42.3074619     -101.86951720    0.00000000
                                                     2       12.0003227      -41.61957840    0.00000000
                                                     2        4.1260454       -4.69861600    0.00000000
                                      S - F
                                                     0      117.6251862        2.79105590    0.00000000
                                                     1       22.9646089       41.94894590    0.00000000
                                                     2        4.5225298       67.72718660    0.00000000
                                      P - F
                                                     0       47.1953145        4.99111440    0.00000000
                                                     1       48.0356033       20.71931720    0.00000000
                                                     2       19.4541456      195.58677580    0.00000000
                                                     2        4.0512875       48.28771760    0.00000000
                                      D - F
                                                     0       79.9073983        3.00492260    0.00000000
                                                     1       45.8263798       25.93779890    0.00000000
                                                     2       26.9903522      125.12449340    0.00000000
                                                     2        9.6835718       70.76340220    0.00000000
                                                     2        2.7995666       15.04928220    0.00000000
    6          1
                                   No pseudopotential on this center.
    7          1
                                   No pseudopotential on this center.
    8          8
                                   No pseudopotential on this center.
    9          1
                                   No pseudopotential on this center.
   10          8
                                   No pseudopotential on this center.
   11          1
                                   No pseudopotential on this center.
   12          8
                                   No pseudopotential on this center.
   13          1
                                   No pseudopotential on this center.
   14          8
                                   No pseudopotential on this center.
   15          1
                                   No pseudopotential on this center.
 ======================================================================================================
 There are   178 symmetry adapted cartesian basis functions of A   symmetry.
 There are   168 symmetry adapted basis functions of A   symmetry.
   168 basis functions,   339 primitive gaussians,   178 cartesian basis functions
    44 alpha electrons       44 beta electrons
       nuclear repulsion energy       637.5631210819 Hartrees.
 NAtoms=   15 NActive=   15 NUniq=   15 SFac= 1.00D+00 NAtFMM=   60 NAOKFM=F Big=F
 Integral buffers will be    131072 words long.
 Raffenetti 2 integral format.
 Two-electron integral symmetry is turned on.
 One-electron integrals computed using PRISM.
   1 Symmetry operations used in ECPInt.
 ECPInt:  NShTT=    1770 NPrTT=   10201 LenC2=    1637 LenP2D=    6535.
 LDataN:  DoStor=T MaxTD1= 5 Len=  102
 NBasis=   168 RedAO= T EigKep=  1.44D-02  NBF=   168
 NBsUse=   168 1.00D-06 EigRej= -1.00D+00 NBFU=   168
 Defaulting to unpruned grid for atomic number  40.
 ExpMin= 2.43D-02 ExpMax= 1.61D+04 ExpMxC= 2.43D+03 IAcc=3 IRadAn=         5 AccDes= 0.00D+00
 Harris functional with IExCor=  402 and IRadAn=       5 diagonalized for initial guess.
 HarFok:  IExCor=  402 AccDes= 0.00D+00 IRadAn=         5 IDoV= 1 UseB2=F ITyADJ=14
 ICtDFT=  3500011 ScaDFX=  1.000000  1.000000  1.000000  1.000000
 Defaulting to unpruned grid for atomic number  40.
 FoFCou: FMM=F IPFlag=           0 FMFlag=      100000 FMFlg1=           0
         NFxFlg=           0 DoJE=T BraDBF=F KetDBF=T FulRan=T
         wScrn=  0.000000 ICntrl=       500 IOpCl=  0 I1Cent=   200000004 NGrid=           0
         NMat0=    1 NMatS0=      1 NMatT0=    0 NMatD0=    1 NMtDS0=    0 NMtDT0=    0
 Petite list used in FoFCou.
 Requested convergence on RMS density matrix=1.00D-08 within 128 cycles.
 Requested convergence on MAX density matrix=1.00D-06.
 Requested convergence on             energy=1.00D-06.
 No special actions if energy rises.
 Defaulting to unpruned grid for atomic number  40.
 Defaulting to unpruned grid for atomic number  40.
 Defaulting to unpruned grid for atomic number  40.
 Defaulting to unpruned grid for atomic number  40.
 Defaulting to unpruned grid for atomic number  40.
 Defaulting to unpruned grid for atomic number  40.
 Defaulting to unpruned grid for atomic number  40.
 Defaulting to unpruned grid for atomic number  40.
 Defaulting to unpruned grid for atomic number  40.
 Defaulting to unpruned grid for atomic number  40.
 Defaulting to unpruned grid for atomic number  40.
 Defaulting to unpruned grid for atomic number  40.
 Defaulting to unpruned grid for atomic number  40.
 Defaulting to unpruned grid for atomic number  40.
 Defaulting to unpruned grid for atomic number  40.
 Defaulting to unpruned grid for atomic number  40.
 SCF Done:  E(RB3LYP) =  -866.680034310     A.U. after   14 cycles
            NFock= 14  Conv=0.78D-08     -V/T= 2.0446

 **********************************************************************

            Population analysis using the SCF Density.

 **********************************************************************

 Orbital symmetries:
       Occupied  (A) (A) (A) (A) (A) (A) (A) (A) (A) (A) (A) (A)
                 (A) (A) (A) (A) (A) (A) (A) (A) (A) (A) (A) (A)
                 (A) (A) (A) (A) (A) (A) (A) (A) (A) (A) (A) (A)
                 (A) (A) (A) (A) (A) (A) (A) (A)
       Virtual   (A) (A) (A) (A) (A) (A) (A) (A) (A) (A) (A) (A)
                 (A) (A) (A) (A) (A) (A) (A) (A) (A) (A) (A) (A)
                 (A) (A) (A) (A) (A) (A) (A) (A) (A) (A) (A) (A)
                 (A) (A) (A) (A) (A) (A) (A) (A) (A) (A) (A) (A)
                 (A) (A) (A) (A) (A) (A) (A) (A) (A) (A) (A) (A)
                 (A) (A) (A) (A) (A) (A) (A) (A) (A) (A) (A) (A)
                 (A) (A) (A) (A) (A) (A) (A) (A) (A) (A) (A) (A)
                 (A) (A) (A) (A) (A) (A) (A) (A) (A) (A) (A) (A)
                 (A) (A) (A) (A) (A) (A) (A) (A) (A) (A) (A) (A)
                 (A) (A) (A) (A) (A) (A) (A) (A) (A) (A) (A) (A)
                 (A) (A) (A) (A)
 The electronic state is 1-A.
 Alpha  occ. eigenvalues --  -66.18724 -19.14622 -19.14519 -19.14408 -19.14144
 Alpha  occ. eigenvalues --  -19.13859 -19.13049 -19.11782  -5.32967  -3.68952
 Alpha  occ. eigenvalues --   -3.68900  -3.68853  -2.06751  -1.27432  -1.27280
 Alpha  occ. eigenvalues --   -1.26673  -1.02029  -0.99251  -0.97784  -0.95977
 Alpha  occ. eigenvalues --   -0.95295  -0.94772  -0.92335  -0.56521  -0.51581
 Alpha  occ. eigenvalues --   -0.50292  -0.48879  -0.47918  -0.47310  -0.43606
 Alpha  occ. eigenvalues --   -0.38061  -0.37256  -0.35607  -0.35322  -0.35028
 Alpha  occ. eigenvalues --   -0.34170  -0.33264  -0.32988  -0.32195  -0.31954
 Alpha  occ. eigenvalues --   -0.31420  -0.31041  -0.29786  -0.28343
 Alpha virt. eigenvalues --   -0.02537  -0.01862  -0.00672   0.00581   0.01455
 Alpha virt. eigenvalues --    0.01518   0.01642   0.02480   0.02744   0.08606
 Alpha virt. eigenvalues --    0.09482   0.10521   0.14907   0.15079   0.15828
 Alpha virt. eigenvalues --    0.16883   0.18140   0.19604   0.19889   0.22911
 Alpha virt. eigenvalues --    0.23457   0.24002   0.24903   0.26398   0.27696
 Alpha virt. eigenvalues --    0.28442   0.29372   0.33468   0.37061   0.39688
 Alpha virt. eigenvalues --    0.43224   0.57229   0.65045   0.71654   0.79570
 Alpha virt. eigenvalues --    0.80609   0.83339   0.85002   0.86455   0.88197
 Alpha virt. eigenvalues --    0.91575   0.92797   0.93267   0.94434   0.95223
 Alpha virt. eigenvalues --    0.97845   0.98731   0.99751   1.00127   1.04455
 Alpha virt. eigenvalues --    1.05282   1.06824   1.08696   1.09767   1.10605
 Alpha virt. eigenvalues --    1.13945   1.17190   1.17928   1.20116   1.20510
 Alpha virt. eigenvalues --    1.22592   1.25420   1.26312   1.36070   1.46058
 Alpha virt. eigenvalues --    1.47829   1.48944   1.51003   1.51929   1.56704
 Alpha virt. eigenvalues --    1.57873   1.58587   1.60053   1.60605   1.63002
 Alpha virt. eigenvalues --    1.63672   1.64955   1.65923   1.68717   1.70291
 Alpha virt. eigenvalues --    1.72929   1.77154   1.79364   1.79620   1.81092
 Alpha virt. eigenvalues --    1.81368   1.82532   1.84257   1.85453   1.87409
 Alpha virt. eigenvalues --    1.89373   1.93025   2.01517   2.09410   2.13823
 Alpha virt. eigenvalues --    2.35783   2.36258   2.36888   2.37623   2.37909
 Alpha virt. eigenvalues --    2.38660   2.43731   2.56997   2.60223   2.61143
 Alpha virt. eigenvalues --    2.63453   2.63564   2.64157   2.64244   2.64508
 Alpha virt. eigenvalues --    2.64715   2.64867   2.65431   2.67818   2.72793
 Alpha virt. eigenvalues --    2.77401   2.83180   3.41019   3.42169   3.43138
 Alpha virt. eigenvalues --    3.43736   3.44596   3.46221   3.87835
          Condensed to atoms (all electrons):
               1          2          3          4          5          6
     1  Si  11.494590   0.385693   0.390685   0.350387  -0.039595  -0.021634
     2  O    0.385693   7.957767  -0.020144  -0.010188   0.001995   0.303250
     3  O    0.390685  -0.020144   7.950851  -0.016656  -0.000937  -0.000649
     4  O    0.350387  -0.010188  -0.016656   8.282571   0.187157  -0.000306
     5  Zr  -0.039595   0.001995  -0.000937   0.187157   9.714997  -0.000818
     6  H   -0.021634   0.303250  -0.000649  -0.000306  -0.000818   0.384895
     7  H   -0.020741   0.000390   0.301836   0.001153  -0.001352  -0.000047
     8  O    0.303771  -0.019238  -0.013518  -0.039463   0.061538   0.000603
     9  H   -0.017833   0.000694  -0.000128   0.001261  -0.004114   0.000020
    10  O   -0.002371  -0.000000   0.000000   0.000387   0.216038  -0.000000
    11  H   -0.000042  -0.000000   0.000000  -0.000064  -0.015041   0.000000
    12  O   -0.002475   0.000002   0.000000   0.000493   0.221059   0.000000
    13  H    0.000096  -0.000000  -0.000000  -0.000003  -0.017808  -0.000000
    14  O   -0.000264   0.000000   0.000000   0.000363   0.218077   0.000000
    15  H   -0.000031   0.000000  -0.000000  -0.000056  -0.016342  -0.000000
               7          8          9         10         11         12
     1  Si  -0.020741   0.303771  -0.017833  -0.002371  -0.000042  -0.002475
     2  O    0.000390  -0.019238   0.000694  -0.000000  -0.000000   0.000002
     3  O    0.301836  -0.013518  -0.000128   0.000000   0.000000   0.000000
     4  O    0.001153  -0.039463   0.001261   0.000387  -0.000064   0.000493
     5  Zr  -0.001352   0.061538  -0.004114   0.216038  -0.015041   0.221059
     6  H   -0.000047   0.000603   0.000020  -0.000000   0.000000   0.000000
     7  H    0.386090  -0.000288   0.000049  -0.000000  -0.000000  -0.000000
     8  O   -0.000288   8.046924   0.297536  -0.000168  -0.000078  -0.000299
     9  H    0.000049   0.297536   0.391009  -0.000003   0.000002   0.000039
    10  O   -0.000000  -0.000168  -0.000003   8.183563   0.293842   0.000878
    11  H   -0.000000  -0.000078   0.000002   0.293842   0.388569  -0.000284
    12  O   -0.000000  -0.000299   0.000039   0.000878  -0.000284   8.179976
    13  H   -0.000000   0.000004  -0.000004  -0.000050  -0.000001   0.294123
    14  O   -0.000000  -0.000001   0.000000   0.000849  -0.000014   0.000574
    15  H    0.000000  -0.000000   0.000000  -0.000591   0.000002  -0.000125
              13         14         15
     1  Si   0.000096  -0.000264  -0.000031
     2  O   -0.000000   0.000000   0.000000
     3  O   -0.000000   0.000000  -0.000000
     4  O   -0.000003   0.000363  -0.000056
     5  Zr  -0.017808   0.218077  -0.016342
     6  H   -0.000000   0.000000  -0.000000
     7  H   -0.000000  -0.000000   0.000000
     8  O    0.000004  -0.000001  -0.000000
     9  H   -0.000004   0.000000   0.000000
    10  O   -0.000050   0.000849  -0.000591
    11  H   -0.000001  -0.000014   0.000002
    12  O    0.294123   0.000574  -0.000125
    13  H    0.390960  -0.001474  -0.000006
    14  O   -0.001474   8.166256   0.299800
    15  H   -0.000006   0.299800   0.382178
 Mulliken charges:
               1
     1  Si   1.179761
     2  O   -0.600220
     3  O   -0.591339
     4  O   -0.757036
     5  Zr   1.475147
     6  H    0.334687
     7  H    0.332910
     8  O   -0.637324
     9  H    0.331472
    10  O   -0.692375
    11  H    0.333108
    12  O   -0.693961
    13  H    0.334164
    14  O   -0.684166
    15  H    0.335172
 Sum of Mulliken charges =  -0.00000
 Mulliken charges with hydrogens summed into heavy atoms:
               1
     1  Si   1.179761
     2  O   -0.265533
     3  O   -0.258429
     4  O   -0.757036
     5  Zr   1.475147
     8  O   -0.305851
    10  O   -0.359267
    12  O   -0.359797
    14  O   -0.348994
 Electronic spatial extent (au):  <R**2>=           2155.1988
 Charge=             -0.0000 electrons
 Dipole moment (field-independent basis, Debye):
    X=              1.4966    Y=             -0.2921    Z=             -0.4098  Tot=              1.5789
 Quadrupole moment (field-independent basis, Debye-Ang):
   XX=            -67.0538   YY=            -69.2819   ZZ=            -69.1311
   XY=             -0.0359   XZ=              2.0317   YZ=              1.0752
 Traceless Quadrupole moment (field-independent basis, Debye-Ang):
   XX=              1.4351   YY=             -0.7930   ZZ=             -0.6421
   XY=             -0.0359   XZ=              2.0317   YZ=              1.0752
 Octapole moment (field-independent basis, Debye-Ang**2):
  XXX=             55.3175  YYY=             -5.1655  ZZZ=             11.4236  XYY=             12.3789
  XXY=             14.6008  XXZ=            -29.8321  XZZ=             11.2647  YZZ=             -4.5636
  YYZ=             -4.5217  XYZ=             -0.9491
 Hexadecapole moment (field-independent basis, Debye-Ang**3):
 XXXX=          -1736.3168 YYYY=           -372.2146 ZZZZ=           -325.7876 XXXY=            -59.9258
 XXXZ=             14.0185 YYYX=             74.3481 YYYZ=              5.9845 ZZZX=             23.5282
 ZZZY=             -7.2414 XXYY=           -332.7702 XXZZ=           -292.4781 YYZZ=           -113.2341
 XXYZ=             16.5337 YYXZ=            -16.5026 ZZXY=            -55.2743
 N-N= 6.375631210819D+02 E-N=-3.311707978448D+03  KE= 8.296614541254D+02
   1 Symmetry operations used in ECPInt.
 ECPInt:  NShTT=    1770 NPrTT=   10201 LenC2=    1637 LenP2D=    6535.
 LDataN:  DoStor=T MaxTD1= 6 Len=  172
 Calling FoFJK, ICntrl=      2127 FMM=F ISym2X=0 I1Cent= 0 IOpClX= 0 NMat=1 NMatS=1 NMatT=0.
 Defaulting to unpruned grid for atomic number  40.
 Defaulting to unpruned grid for atomic number  40.
 Defaulting to unpruned grid for atomic number  40.
 Defaulting to unpruned grid for atomic number  40.
 Defaulting to unpruned grid for atomic number  40.
 Defaulting to unpruned grid for atomic number  40.
 Defaulting to unpruned grid for atomic number  40.
 Defaulting to unpruned grid for atomic number  40.
 Defaulting to unpruned grid for atomic number  40.
 Defaulting to unpruned grid for atomic number  40.
 Defaulting to unpruned grid for atomic number  40.
 Defaulting to unpruned grid for atomic number  40.
 Defaulting to unpruned grid for atomic number  40.
 Defaulting to unpruned grid for atomic number  40.
 Defaulting to unpruned grid for atomic number  40.
 Defaulting to unpruned grid for atomic number  40.
 ***** Axes restored to original set *****
 -------------------------------------------------------------------
 Center     Atomic                   Forces (Hartrees/Bohr)
 Number     Number              X              Y              Z
 -------------------------------------------------------------------
      1       14           0.022033687    0.005149498    0.022690705
      2        8          -0.001668734    0.001332402   -0.003434927
      3        8          -0.000310520   -0.001478942   -0.002822392
      4        8           0.011987836   -0.002266444   -0.012977024
      5       40          -0.016249177    0.000873352   -0.009831340
      6        1          -0.000046714    0.000112791   -0.000098666
      7        1          -0.000102045    0.000223510    0.000402304
      8        8          -0.006628121    0.001732759   -0.001662637
      9        1          -0.003112461   -0.002956231   -0.001244341
     10        8          -0.003315544    0.004401400    0.003416203
     11        1           0.001483815   -0.001733366    0.000443537
     12        8          -0.002429346   -0.007442864    0.000176442
     13        1          -0.000308530    0.001057896    0.001051023
     14        8          -0.001642725    0.001728731    0.003092428
     15        1           0.000308580   -0.000734492    0.000798686
 -------------------------------------------------------------------
 Cartesian Forces:  Max     0.022690705 RMS     0.006548467

 GradGradGradGradGradGradGradGradGradGradGradGradGradGradGradGradGradGrad
 Berny optimization.
 FormGI is forming the generalized inverse of G from B-inverse, IUseBI=4.
 Internal  Forces:  Max     0.022229411 RMS     0.005203747
 Search for a local minimum.
 Step number   1 out of a maximum of   67
 All quantities printed in internal units (Hartrees-Bohrs-Radians)
 Mixed Optimization -- RFO/linear search
 Second derivative matrix not updated -- first step.
 ITU=  0
     Eigenvalues ---    0.00230   0.00230   0.00230   0.00230   0.03138
     Eigenvalues ---    0.03732   0.03782   0.03962   0.07595   0.10447
     Eigenvalues ---    0.11446   0.11649   0.12384   0.13641   0.15843
     Eigenvalues ---    0.16000   0.16000   0.16000   0.16000   0.16000
     Eigenvalues ---    0.16000   0.18952   0.19683   0.19789   0.19910
     Eigenvalues ---    0.19986   0.20440   0.21460   0.37017   0.43277
     Eigenvalues ---    0.43863   0.46083   0.54274   0.54624   0.54680
     Eigenvalues ---    0.54844   0.54945   0.553461000.000001000.00000
     Eigenvalues --- 1000.000001000.000001000.000001000.000001000.00000
     Eigenvalues --- 1000.000001000.000001000.000001000.000001000.00000
     Eigenvalues --- 1000.000001000.000001000.000001000.000001000.00000
     Eigenvalues --- 1000.000001000.00000
 RFO step:  Lambda=-8.33154051D-03 EMin= 2.30000000D-03
 Linear search not attempted -- first point.
 Iteration  1 RMS(Cart)=  0.06863650 RMS(Int)=  0.00143936
 Iteration  2 RMS(Cart)=  0.00238727 RMS(Int)=  0.00053364
 Iteration  3 RMS(Cart)=  0.00000137 RMS(Int)=  0.00053364
 Iteration  4 RMS(Cart)=  0.00000000 RMS(Int)=  0.00053364
 Iteration  1 RMS(Cart)=  0.00000000 RMS(Int)=  0.00000000
 Variable       Old X    -DE/DX   Delta X   Delta X   Delta X     New X
                                 (Linear)    (Quad)   (Total)
    R1        3.10319   0.00263   0.00000   0.00587   0.00587   3.10907
    R2        3.11029   0.00117   0.00000   0.00265   0.00265   3.11295
    R3        3.07737   0.00090   0.00000   0.00192   0.00192   3.07929
    R4        3.19520  -0.00747   0.00000  -0.01973  -0.01973   3.17547
    R5        1.81970   0.00008   0.00000   0.00015   0.00015   1.81985
    R6        1.82168  -0.00036   0.00000  -0.00064  -0.00064   1.82104
    R7        3.87518  -0.02223   0.00000  -0.13330  -0.13330   3.74187
    R8        3.72021  -0.00078   0.00000  -0.00378  -0.00378   3.71644
    R9        3.74644  -0.00631   0.00000  -0.03192  -0.03192   3.71453
   R10        3.69439  -0.00420   0.00000  -0.01974  -0.01974   3.67465
   R11        1.82483  -0.00273   0.00000  -0.00496  -0.00496   1.81987
   R12        1.81881   0.00092   0.00000   0.00165   0.00165   1.82046
   R13        1.82117  -0.00005   0.00000  -0.00009  -0.00009   1.82108
   R14        1.81526   0.00017   0.00000   0.00029   0.00029   1.81556
    A1        1.87881   0.00210   0.00000  -0.01143  -0.01257   1.86623
    A2        2.06640  -0.00383   0.00000  -0.02384  -0.02540   2.04099
    A3        1.84268  -0.00194   0.00000   0.00308   0.00317   1.84585
    A4        1.96857  -0.00655   0.00000  -0.03803  -0.03908   1.92949
    A5        1.98615  -0.00291   0.00000  -0.00705  -0.00665   1.97950
    A6        1.71611   0.01385   0.00000   0.08708   0.08736   1.80347
    A7        2.02313   0.00020   0.00000   0.00118   0.00118   2.02431
    A8        1.99882   0.00010   0.00000   0.00061   0.00061   1.99942
    A9        2.37619  -0.01697   0.00000   0.00000   0.00000   2.37619
   A10        1.97349  -0.00122   0.00000  -0.01935  -0.02086   1.95263
   A11        1.98530  -0.00189   0.00000  -0.02309  -0.02452   1.96077
   A12        1.83279   0.00273   0.00000   0.03290   0.03308   1.86587
   A13        1.99358  -0.00309   0.00000  -0.03101  -0.03226   1.96132
   A14        1.82398   0.00246   0.00000   0.02924   0.02954   1.85353
   A15        1.83238   0.00245   0.00000   0.02849   0.02885   1.86123
   A16        2.03567  -0.00365   0.00000  -0.02169  -0.02169   2.01398
   A17        2.30994   0.00376   0.00000   0.02237   0.02237   2.33231
   A18        2.22354   0.00274   0.00000   0.01626   0.01626   2.23980
   A19        2.47858  -0.00202   0.00000  -0.01203  -0.01203   2.46656
    D1       -0.55056   0.00236   0.00000   0.02334   0.02314  -0.52742
    D2        1.70706  -0.00822   0.00000  -0.06209  -0.06168   1.64538
    D3       -2.67792   0.00574   0.00000   0.03595   0.03574  -2.64218
    D4        2.64795  -0.00184   0.00000  -0.01816  -0.01781   2.63013
    D5        0.33621   0.00690   0.00000   0.05504   0.05454   0.39075
    D6       -1.59959  -0.00455   0.00000  -0.02589  -0.02575  -1.62534
    D7        1.76038   0.00443   0.00000   0.05038   0.04961   1.81000
    D8       -2.30731  -0.00256   0.00000  -0.02638  -0.02544  -2.33274
    D9       -0.20848  -0.00074   0.00000  -0.00054  -0.00072  -0.20920
   D10       -0.01284   0.00116   0.00000   0.03066   0.02996   0.01712
   D11       -2.06943   0.00144   0.00000   0.04652   0.04686  -2.02257
   D12        2.12810   0.00216   0.00000   0.04262   0.04299   2.17108
   D13        1.37502  -0.00405   0.00000  -0.06415  -0.06372   1.31131
   D14       -0.93628   0.00353   0.00000   0.02302   0.02255  -0.91373
   D15       -2.93008  -0.00013   0.00000  -0.01960  -0.01957  -2.94965
   D16       -1.54004   0.00347   0.00000   0.02152   0.02097  -1.51908
   D17        0.76721  -0.00356   0.00000  -0.06218  -0.06154   0.70567
   D18        2.75973  -0.00062   0.00000  -0.02526  -0.02534   2.73439
   D19       -2.04159  -0.00341   0.00000  -0.03135  -0.03071  -2.07230
   D20        1.94001   0.00335   0.00000   0.05117   0.05047   1.99048
   D21       -0.04755   0.00041   0.00000   0.01389   0.01395  -0.03360
   D22       -2.04481  -0.00023   0.00000  -0.00160  -0.00160  -2.04641
   D23        0.03634   0.00073   0.00000   0.00450   0.00456   0.04090
   D24        2.14001  -0.00051   0.00000  -0.00400  -0.00406   2.13595
         Item               Value     Threshold  Converged?
 Maximum Force            0.022229     0.000450     NO 
 RMS     Force            0.004735     0.000300     NO 
 Maximum Displacement     0.183273     0.001800     NO 
 RMS     Displacement     0.068753     0.001200     NO 
 Predicted change in Energy=-4.386255D-03
 GradGradGradGradGradGradGradGradGradGradGradGradGradGradGradGradGradGrad

                          Input orientation:                          
 ---------------------------------------------------------------------
 Center     Atomic      Atomic             Coordinates (Angstroms)
 Number     Number       Type             X           Y           Z
 ---------------------------------------------------------------------
      1         14           0       -1.838974   -0.024438   -0.094807
      2          8           0       -2.722407    1.336517   -0.367178
      3          8           0       -2.891328   -1.291602   -0.115971
      4          8           0       -0.586121   -0.304504   -1.098384
      5         40           0        1.384698   -0.138397   -1.002799
      6          1           0       -3.507885    1.227355   -0.913549
      7          1           0       -2.507725   -2.125965   -0.408052
      8          8           0       -1.097817    0.203299    1.396006
      9          1           0       -1.304434    1.033954    1.837314
     10          8           0        2.189926   -1.575024    0.072114
     11          1           0        2.368490   -1.681059    1.012809
     12          8           0        1.956384    1.647477   -0.413240
     13          1           0        2.491239    2.291622   -0.890398
     14          8           0        2.060132   -0.370452   -2.811439
     15          1           0        2.617932   -0.951683   -3.334957
 ---------------------------------------------------------------------
                    Distance matrix (angstroms):
                    1          2          3          4          5
     1  Si   0.000000
     2  O    1.645246   0.000000
     3  O    1.647301   2.645496   0.000000
     4  O    1.629492   2.791295   2.693229   0.000000
     5  Zr   3.351044   4.409954   4.516718   1.980115   0.000000
     6  H    2.241113   0.963024   2.713194   3.304159   5.080415
     7  H    2.227502   3.469372   0.963652   2.736209   4.410794
     8  O    1.680387   2.651847   2.781633   2.596474   3.468992
     9  H    2.266941   2.638556   3.426626   3.305415   4.083146
    10  O    4.320210   5.727220   5.092626   3.269666   1.966653
    11  H    4.655530   6.076788   5.393654   3.883525   2.722191
    12  O    4.159501   4.689339   5.676872   3.277801   1.965643
    13  H    4.974720   5.326170   6.512392   4.031534   2.672463
    14  O    4.764750   5.635675   5.712357   3.153024   1.944541
    15  H    5.587698   6.524017   6.389786   3.960689   2.760664
                    6          7          8          9         10
     6  H    0.000000
     7  H    3.535620   0.000000
     8  O    3.491585   3.266181   0.000000
     9  H    3.529852   4.058900   0.963032   0.000000
    10  O    6.425723   4.754157   3.965397   4.704598   0.000000
    11  H    6.833851   5.098457   3.963954   4.641279   0.963346
    12  O    5.503186   5.845268   3.832384   4.009282   3.267204
    13  H    6.092839   6.688600   4.740260   4.840380   3.996019
    14  O    6.095720   5.451918   5.291921   5.907924   3.127733
    15  H    6.938088   6.018145   6.125585   6.788233   3.489968
                   11         12         13         14         15
    11  H    0.000000
    12  O    3.644530   0.000000
    13  H    4.406751   0.963676   0.000000
    14  O    4.054336   3.135946   3.311025   0.000000
    15  H    4.415573   3.966070   4.063366   0.960751   0.000000
 Stoichiometry    H6O7SiZr
 Framework group  C1[X(H6O7SiZr)]
 Deg. of freedom    39
 Full point group                 C1      NOp   1
 Largest Abelian subgroup         C1      NOp   1
 Largest concise Abelian subgroup C1      NOp   1
                         Standard orientation:                         
 ---------------------------------------------------------------------
 Center     Atomic      Atomic             Coordinates (Angstroms)
 Number     Number       Type             X           Y           Z
 ---------------------------------------------------------------------
      1         14           0       -2.084382   -0.048217   -0.069248
      2          8           0       -2.913944    1.200017   -0.747904
      3          8           0       -3.031640   -1.388209   -0.213221
      4          8           0       -0.588514   -0.340515   -0.645605
      5         40           0        1.266287   -0.010863   -0.035772
      6          1           0       -3.508091    0.968848   -1.469684
      7          1           0       -2.545156   -2.217530   -0.277898
      8          8           0       -1.804015    0.403277    1.524881
      9          1           0       -2.162744    1.259590    1.780757
     10          8           0        1.798075   -1.249814    1.395984
     11          1           0        1.708813   -1.234941    2.355071
     12          8           0        1.569983    1.869291    0.450584
     13          1           0        2.188894    2.495510    0.058831
     14          8           0        2.433443   -0.391476   -1.543791
     15          1           0        3.141027   -0.982474   -1.814139
 ---------------------------------------------------------------------
 Rotational constants (GHZ):           1.6920537           0.5192953           0.5102003
 Basis read from rwf:  (5D, 7F)
 Pseudo-potential data read from rwf file.
 There are   178 symmetry adapted cartesian basis functions of A   symmetry.
 There are   168 symmetry adapted basis functions of A   symmetry.
   168 basis functions,   339 primitive gaussians,   178 cartesian basis functions
    44 alpha electrons       44 beta electrons
       nuclear repulsion energy       641.7404490417 Hartrees.
 NAtoms=   15 NActive=   15 NUniq=   15 SFac= 1.00D+00 NAtFMM=   60 NAOKFM=F Big=F
 Integral buffers will be    131072 words long.
 Raffenetti 2 integral format.
 Two-electron integral symmetry is turned on.
 One-electron integrals computed using PRISM.
   1 Symmetry operations used in ECPInt.
 ECPInt:  NShTT=    1770 NPrTT=   10201 LenC2=    1644 LenP2D=    6561.
 LDataN:  DoStor=T MaxTD1= 5 Len=  102
 NBasis=   168 RedAO= T EigKep=  1.33D-02  NBF=   168
 NBsUse=   168 1.00D-06 EigRej= -1.00D+00 NBFU=   168
 Defaulting to unpruned grid for atomic number  40.
 Initial guess from the checkpoint file:  "/localscratch/sarashs.33453165.0/Gau-4460.chk"
 B after Tr=    -0.000000    0.000000    0.000000
         Rot=    0.999368    0.034280    0.008767   -0.003490 Ang=   4.08 deg.
 ExpMin= 2.43D-02 ExpMax= 1.61D+04 ExpMxC= 2.43D+03 IAcc=3 IRadAn=         5 AccDes= 0.00D+00
 Harris functional with IExCor=  402 and IRadAn=       5 diagonalized for initial guess.
 HarFok:  IExCor=  402 AccDes= 0.00D+00 IRadAn=         5 IDoV= 1 UseB2=F ITyADJ=14
 ICtDFT=  3500011 ScaDFX=  1.000000  1.000000  1.000000  1.000000
 Defaulting to unpruned grid for atomic number  40.
 FoFCou: FMM=F IPFlag=           0 FMFlag=      100000 FMFlg1=           0
         NFxFlg=           0 DoJE=T BraDBF=F KetDBF=T FulRan=T
         wScrn=  0.000000 ICntrl=       500 IOpCl=  0 I1Cent=   200000004 NGrid=           0
         NMat0=    1 NMatS0=      1 NMatT0=    0 NMatD0=    1 NMtDS0=    0 NMtDT0=    0
 Petite list used in FoFCou.
 Requested convergence on RMS density matrix=1.00D-08 within 128 cycles.
 Requested convergence on MAX density matrix=1.00D-06.
 Requested convergence on             energy=1.00D-06.
 No special actions if energy rises.
 Defaulting to unpruned grid for atomic number  40.
 Defaulting to unpruned grid for atomic number  40.
 Defaulting to unpruned grid for atomic number  40.
 Defaulting to unpruned grid for atomic number  40.
 Defaulting to unpruned grid for atomic number  40.
 Defaulting to unpruned grid for atomic number  40.
 Defaulting to unpruned grid for atomic number  40.
 Defaulting to unpruned grid for atomic number  40.
 Defaulting to unpruned grid for atomic number  40.
 Defaulting to unpruned grid for atomic number  40.
 Defaulting to unpruned grid for atomic number  40.
 Defaulting to unpruned grid for atomic number  40.
 Defaulting to unpruned grid for atomic number  40.
 Defaulting to unpruned grid for atomic number  40.
 Defaulting to unpruned grid for atomic number  40.
 Defaulting to unpruned grid for atomic number  40.
 SCF Done:  E(RB3LYP) =  -866.684731862     A.U. after   11 cycles
            NFock= 11  Conv=0.86D-08     -V/T= 2.0444
   1 Symmetry operations used in ECPInt.
 ECPInt:  NShTT=    1770 NPrTT=   10201 LenC2=    1644 LenP2D=    6561.
 LDataN:  DoStor=T MaxTD1= 6 Len=  172
 Calling FoFJK, ICntrl=      2127 FMM=F ISym2X=0 I1Cent= 0 IOpClX= 0 NMat=1 NMatS=1 NMatT=0.
 Defaulting to unpruned grid for atomic number  40.
 Defaulting to unpruned grid for atomic number  40.
 Defaulting to unpruned grid for atomic number  40.
 Defaulting to unpruned grid for atomic number  40.
 Defaulting to unpruned grid for atomic number  40.
 Defaulting to unpruned grid for atomic number  40.
 Defaulting to unpruned grid for atomic number  40.
 Defaulting to unpruned grid for atomic number  40.
 Defaulting to unpruned grid for atomic number  40.
 Defaulting to unpruned grid for atomic number  40.
 Defaulting to unpruned grid for atomic number  40.
 Defaulting to unpruned grid for atomic number  40.
 Defaulting to unpruned grid for atomic number  40.
 Defaulting to unpruned grid for atomic number  40.
 Defaulting to unpruned grid for atomic number  40.
 Defaulting to unpruned grid for atomic number  40.
 ***** Axes restored to original set *****
 -------------------------------------------------------------------
 Center     Atomic                   Forces (Hartrees/Bohr)
 Number     Number              X              Y              Z
 -------------------------------------------------------------------
      1       14           0.005003404    0.004008009    0.017839669
      2        8           0.000293334    0.001680657   -0.001716392
      3        8          -0.000120888   -0.002037833   -0.001141886
      4        8          -0.008442237   -0.001825615   -0.006596265
      5       40           0.007776303   -0.002168260   -0.000992849
      6        1           0.000468250   -0.000409106   -0.000073636
      7        1          -0.000252429    0.000021836    0.000186575
      8        8          -0.003180770   -0.001562898   -0.008305981
      9        1          -0.001849316   -0.000313789   -0.000103901
     10        8          -0.001881796    0.001463805    0.004300496
     11        1           0.000865205   -0.001080993   -0.000916307
     12        8           0.000241306    0.001481595    0.000787477
     13        1          -0.000338834    0.001147265    0.001487682
     14        8           0.001233374   -0.000169774   -0.005089589
     15        1           0.000185095   -0.000234899    0.000334907
 -------------------------------------------------------------------
 Cartesian Forces:  Max     0.017839669 RMS     0.003948644

 GradGradGradGradGradGradGradGradGradGradGradGradGradGradGradGradGradGrad
 Berny optimization.
 Using GEDIIS/GDIIS optimizer.
 FormGI is forming the generalized inverse of G from B-inverse, IUseBI=4.
 Internal  Forces:  Max     0.009934450 RMS     0.002597325
 Search for a local minimum.
 Step number   2 out of a maximum of   67
 All quantities printed in internal units (Hartrees-Bohrs-Radians)
 Mixed Optimization -- RFO/linear search
 Update second derivatives using D2CorX and points    1    2
 DE= -4.70D-03 DEPred=-4.39D-03 R= 1.07D+00
 TightC=F SS=  1.41D+00  RLast= 2.59D-01 DXNew= 5.0454D-01 7.7710D-01
 Trust test= 1.07D+00 RLast= 2.59D-01 DXMaxT set to 5.05D-01
 ITU=  1  0
 Use linear search instead of GDIIS.
     Eigenvalues ---    0.00230   0.00230   0.00230   0.00230   0.03053
     Eigenvalues ---    0.03731   0.03781   0.03963   0.06227   0.10493
     Eigenvalues ---    0.10944   0.11092   0.12363   0.12966   0.15485
     Eigenvalues ---    0.15999   0.16000   0.16000   0.16000   0.16000
     Eigenvalues ---    0.18336   0.19456   0.19710   0.19924   0.19986
     Eigenvalues ---    0.20043   0.20611   0.25240   0.37520   0.43288
     Eigenvalues ---    0.43833   0.46387   0.54310   0.54623   0.54681
     Eigenvalues ---    0.54847   0.54980   0.553451000.000001000.00000
     Eigenvalues --- 1000.000001000.000001000.000001000.000001000.00000
     Eigenvalues --- 1000.000001000.000001000.000001000.000001000.00000
     Eigenvalues --- 1000.000001000.000001000.000001000.000001000.00000
     Eigenvalues --- 1000.000001000.00000
 RFO step:  Lambda=-2.28685447D-03 EMin= 2.29540852D-03
 Quartic linear search produced a step of  0.10868.
 Iteration  1 RMS(Cart)=  0.05774330 RMS(Int)=  0.00118236
 Iteration  2 RMS(Cart)=  0.00184609 RMS(Int)=  0.00044673
 Iteration  3 RMS(Cart)=  0.00000108 RMS(Int)=  0.00044673
 Iteration  4 RMS(Cart)=  0.00000000 RMS(Int)=  0.00044673
 Iteration  1 RMS(Cart)=  0.00000000 RMS(Int)=  0.00000000
 Variable       Old X    -DE/DX   Delta X   Delta X   Delta X     New X
                                 (Linear)    (Quad)   (Total)
    R1        3.10907   0.00094   0.00064   0.00330   0.00394   3.11301
    R2        3.11295   0.00180   0.00029   0.00498   0.00526   3.11821
    R3        3.07929   0.00408   0.00021   0.00996   0.01017   3.08947
    R4        3.17547  -0.00993  -0.00214  -0.03246  -0.03461   3.14086
    R5        1.81985  -0.00029   0.00002  -0.00056  -0.00054   1.81931
    R6        1.82104  -0.00018  -0.00007  -0.00046  -0.00053   1.82051
    R7        3.74187   0.00808  -0.01449   0.03427   0.01979   3.76166
    R8        3.71644   0.00115  -0.00041   0.00575   0.00534   3.72178
    R9        3.71453   0.00304  -0.00347   0.01234   0.00887   3.72340
   R10        3.67465   0.00496  -0.00215   0.02318   0.02103   3.69568
   R11        1.81987   0.00008  -0.00054  -0.00067  -0.00120   1.81866
   R12        1.82046  -0.00062   0.00018  -0.00095  -0.00077   1.81969
   R13        1.82108  -0.00016  -0.00001  -0.00033  -0.00034   1.82074
   R14        1.81556   0.00007   0.00003   0.00018   0.00021   1.81577
    A1        1.86623   0.00181  -0.00137   0.00378   0.00183   1.86807
    A2        2.04099  -0.00261  -0.00276  -0.02194  -0.02530   2.01569
    A3        1.84585   0.00013   0.00034   0.00624   0.00675   1.85260
    A4        1.92949  -0.00203  -0.00425  -0.02085  -0.02556   1.90393
    A5        1.97950  -0.00067  -0.00072  -0.00077  -0.00130   1.97820
    A6        1.80347   0.00336   0.00949   0.03506   0.04476   1.84823
    A7        2.02431  -0.00091   0.00013  -0.00596  -0.00583   2.01848
    A8        1.99942   0.00043   0.00007   0.00300   0.00307   2.00249
    A9        2.37619  -0.00677   0.00000   0.00000   0.00000   2.37619
   A10        1.95263  -0.00124  -0.00227  -0.02082  -0.02462   1.92801
   A11        1.96077  -0.00203  -0.00267  -0.02704  -0.03109   1.92968
   A12        1.86587   0.00147   0.00360   0.02432   0.02822   1.89409
   A13        1.96132  -0.00139  -0.00351  -0.02263  -0.02760   1.93371
   A14        1.85353   0.00191   0.00321   0.02854   0.03201   1.88554
   A15        1.86123   0.00188   0.00314   0.02671   0.03020   1.89144
   A16        2.01398  -0.00198  -0.00236  -0.01677  -0.01913   1.99485
   A17        2.33231   0.00269   0.00243   0.02163   0.02406   2.35637
   A18        2.23980   0.00346   0.00177   0.02588   0.02764   2.26744
   A19        2.46656  -0.00079  -0.00131  -0.00720  -0.00851   2.45805
    D1       -0.52742   0.00097   0.00251   0.01127   0.01371  -0.51371
    D2        1.64538  -0.00211  -0.00670  -0.02914  -0.03563   1.60975
    D3       -2.64218   0.00075   0.00388   0.00694   0.01069  -2.63148
    D4        2.63013  -0.00139  -0.00194  -0.01424  -0.01609   2.61404
    D5        0.39075   0.00202   0.00593   0.02514   0.03093   0.42169
    D6       -1.62534  -0.00045  -0.00280  -0.00465  -0.00739  -1.63273
    D7        1.81000   0.00079   0.00539   0.01744   0.02227   1.83226
    D8       -2.33274  -0.00047  -0.00276  -0.01191  -0.01410  -2.34685
    D9       -0.20920  -0.00032  -0.00008  -0.00287  -0.00295  -0.21215
   D10        0.01712   0.00190   0.00326   0.03572   0.03865   0.05577
   D11       -2.02257  -0.00002   0.00509   0.02762   0.03286  -1.98971
   D12        2.17108   0.00064   0.00467   0.03096   0.03582   2.20690
   D13        1.31131  -0.00261  -0.00692  -0.08847  -0.09476   1.21655
   D14       -0.91373   0.00197   0.00245  -0.01834  -0.01656  -0.93029
   D15       -2.94965  -0.00010  -0.00213  -0.05081  -0.05289  -3.00254
   D16       -1.51908   0.00219   0.00228  -0.00437  -0.00270  -1.52177
   D17        0.70567  -0.00273  -0.00669  -0.07690  -0.08295   0.62272
   D18        2.73439  -0.00005  -0.00275  -0.03950  -0.04229   2.69210
   D19       -2.07230  -0.00205  -0.00334  -0.02031  -0.02290  -2.09519
   D20        1.99048   0.00248   0.00549   0.04924   0.05399   2.04447
   D21       -0.03360  -0.00022   0.00152   0.01077   0.01227  -0.02133
   D22       -2.04641  -0.00033  -0.00017  -0.01073  -0.01094  -2.05735
   D23        0.04090  -0.00005   0.00050  -0.00791  -0.00744   0.03347
   D24        2.13595   0.00028  -0.00044  -0.00595  -0.00634   2.12961
         Item               Value     Threshold  Converged?
 Maximum Force            0.009934     0.000450     NO 
 RMS     Force            0.002459     0.000300     NO 
 Maximum Displacement     0.131662     0.001800     NO 
 RMS     Displacement     0.058016     0.001200     NO 
 Predicted change in Energy=-1.241068D-03
 GradGradGradGradGradGradGradGradGradGradGradGradGradGradGradGradGradGrad

                          Input orientation:                          
 ---------------------------------------------------------------------
 Center     Atomic      Atomic             Coordinates (Angstroms)
 Number     Number       Type             X           Y           Z
 ---------------------------------------------------------------------
      1         14           0       -1.820449   -0.019924   -0.063178
      2          8           0       -2.691852    1.353163   -0.325832
      3          8           0       -2.876801   -1.285148   -0.141392
      4          8           0       -0.591530   -0.284102   -1.108541
      5         40           0        1.393260   -0.141673   -1.056129
      6          1           0       -3.468708    1.253054   -0.885594
      7          1           0       -2.493784   -2.111177   -0.456134
      8          8           0       -1.116123    0.158489    1.431674
      9          1           0       -1.362205    0.967400    1.891359
     10          8           0        2.153366   -1.537413    0.107056
     11          1           0        2.341286   -1.611386    1.048579
     12          8           0        1.942689    1.650477   -0.449044
     13          1           0        2.471714    2.319703   -0.896921
     14          8           0        2.083998   -0.418449   -2.864697
     15          1           0        2.647249   -1.015915   -3.363735
 ---------------------------------------------------------------------
                    Distance matrix (angstroms):
                    1          2          3          4          5
     1  Si   0.000000
     2  O    1.647331   0.000000
     3  O    1.650087   2.651209   0.000000
     4  O    1.634875   2.775721   2.675805   0.000000
     5  Zr   3.365814   4.410897   4.514167   1.990585   0.000000
     6  H    2.239107   0.962736   2.710473   3.269665   5.060937
     7  H    2.231845   3.472443   0.963373   2.717058   4.398642
     8  O    1.662073   2.645561   2.767419   2.631308   3.546303
     9  H    2.237188   2.613945   3.391172   3.340598   4.184533
    10  O    4.257106   5.658530   5.042612   3.253140   1.969479
    11  H    4.592253   6.000836   5.361986   3.875082   2.736531
    12  O    4.135255   4.645702   5.651550   3.255733   1.970337
    13  H    4.958996   5.284199   6.494027   4.025922   2.691985
    14  O    4.822037   5.691502   5.725127   3.203214   1.955670
    15  H    5.643226   6.583874   6.400868   4.013869   2.768002
                    6          7          8          9         10
     6  H    0.000000
     7  H    3.528876   0.000000
     8  O    3.478859   3.257783   0.000000
     9  H    3.497202   4.033464   0.962394   0.000000
    10  O    6.354508   4.716183   3.914110   4.670873   0.000000
    11  H    6.760331   5.088404   3.902935   4.590889   0.962939
    12  O    5.443504   5.816561   3.888375   4.106872   3.242880
    13  H    6.035436   6.669570   4.792262   4.929722   3.998331
    14  O    6.127260   5.442664   5.388176   6.034647   3.176194
    15  H    6.978133   6.006993   6.207910   6.901107   3.544329
                   11         12         13         14         15
    11  H    0.000000
    12  O    3.611303   0.000000
    13  H    4.388102   0.963496   0.000000
    14  O    4.099150   3.183678   3.394104   0.000000
    15  H    4.462814   4.012665   4.152389   0.960863   0.000000
 Stoichiometry    H6O7SiZr
 Framework group  C1[X(H6O7SiZr)]
 Deg. of freedom    39
 Full point group                 C1      NOp   1
 Largest Abelian subgroup         C1      NOp   1
 Largest concise Abelian subgroup C1      NOp   1
                         Standard orientation:                         
 ---------------------------------------------------------------------
 Center     Atomic      Atomic             Coordinates (Angstroms)
 Number     Number       Type             X           Y           Z
 ---------------------------------------------------------------------
      1         14           0       -2.083422   -0.051364   -0.060720
      2          8           0       -2.895630    1.130908   -0.870814
      3          8           0       -3.008534   -1.415369   -0.140995
      4          8           0       -0.585386   -0.387569   -0.622567
      5         40           0        1.282157   -0.016110   -0.042283
      6          1           0       -3.461579    0.830448   -1.589344
      7          1           0       -2.511457   -2.240565   -0.133628
      8          8           0       -1.872743    0.511217    1.488991
      9          1           0       -2.282482    1.365199    1.659377
     10          8           0        1.717182   -1.045884    1.579187
     11          1           0        1.614820   -0.901255    2.525684
     12          8           0        1.540969    1.913017    0.263842
     13          1           0        2.149900    2.529587   -0.157310
     14          8           0        2.499052   -0.583256   -1.464308
     15          1           0        3.213147   -1.204428   -1.630053
 ---------------------------------------------------------------------
 Rotational constants (GHZ):           1.6781734           0.5160127           0.5092938
 Basis read from rwf:  (5D, 7F)
 Pseudo-potential data read from rwf file.
 There are   178 symmetry adapted cartesian basis functions of A   symmetry.
 There are   168 symmetry adapted basis functions of A   symmetry.
   168 basis functions,   339 primitive gaussians,   178 cartesian basis functions
    44 alpha electrons       44 beta electrons
       nuclear repulsion energy       640.9780290971 Hartrees.
 NAtoms=   15 NActive=   15 NUniq=   15 SFac= 1.00D+00 NAtFMM=   60 NAOKFM=F Big=F
 Integral buffers will be    131072 words long.
 Raffenetti 2 integral format.
 Two-electron integral symmetry is turned on.
 One-electron integrals computed using PRISM.
   1 Symmetry operations used in ECPInt.
 ECPInt:  NShTT=    1770 NPrTT=   10201 LenC2=    1644 LenP2D=    6564.
 LDataN:  DoStor=T MaxTD1= 5 Len=  102
 NBasis=   168 RedAO= T EigKep=  1.34D-02  NBF=   168
 NBsUse=   168 1.00D-06 EigRej= -1.00D+00 NBFU=   168
 Defaulting to unpruned grid for atomic number  40.
 Initial guess from the checkpoint file:  "/localscratch/sarashs.33453165.0/Gau-4460.chk"
 B after Tr=    -0.000000   -0.000000   -0.000000
         Rot=    0.998648    0.051507    0.006884   -0.001116 Ang=   5.96 deg.
 ExpMin= 2.43D-02 ExpMax= 1.61D+04 ExpMxC= 2.43D+03 IAcc=3 IRadAn=         5 AccDes= 0.00D+00
 Harris functional with IExCor=  402 and IRadAn=       5 diagonalized for initial guess.
 HarFok:  IExCor=  402 AccDes= 0.00D+00 IRadAn=         5 IDoV= 1 UseB2=F ITyADJ=14
 ICtDFT=  3500011 ScaDFX=  1.000000  1.000000  1.000000  1.000000
 Defaulting to unpruned grid for atomic number  40.
 FoFCou: FMM=F IPFlag=           0 FMFlag=      100000 FMFlg1=           0
         NFxFlg=           0 DoJE=T BraDBF=F KetDBF=T FulRan=T
         wScrn=  0.000000 ICntrl=       500 IOpCl=  0 I1Cent=   200000004 NGrid=           0
         NMat0=    1 NMatS0=      1 NMatT0=    0 NMatD0=    1 NMtDS0=    0 NMtDT0=    0
 Petite list used in FoFCou.
 Requested convergence on RMS density matrix=1.00D-08 within 128 cycles.
 Requested convergence on MAX density matrix=1.00D-06.
 Requested convergence on             energy=1.00D-06.
 No special actions if energy rises.
 Defaulting to unpruned grid for atomic number  40.
 Defaulting to unpruned grid for atomic number  40.
 Defaulting to unpruned grid for atomic number  40.
 Defaulting to unpruned grid for atomic number  40.
 Defaulting to unpruned grid for atomic number  40.
 Defaulting to unpruned grid for atomic number  40.
 Defaulting to unpruned grid for atomic number  40.
 Defaulting to unpruned grid for atomic number  40.
 Defaulting to unpruned grid for atomic number  40.
 Defaulting to unpruned grid for atomic number  40.
 Defaulting to unpruned grid for atomic number  40.
 Defaulting to unpruned grid for atomic number  40.
 Defaulting to unpruned grid for atomic number  40.
 Defaulting to unpruned grid for atomic number  40.
 Defaulting to unpruned grid for atomic number  40.
 Defaulting to unpruned grid for atomic number  40.
 SCF Done:  E(RB3LYP) =  -866.686264613     A.U. after   11 cycles
            NFock= 11  Conv=0.48D-08     -V/T= 2.0445
   1 Symmetry operations used in ECPInt.
 ECPInt:  NShTT=    1770 NPrTT=   10201 LenC2=    1644 LenP2D=    6564.
 LDataN:  DoStor=T MaxTD1= 6 Len=  172
 Calling FoFJK, ICntrl=      2127 FMM=F ISym2X=0 I1Cent= 0 IOpClX= 0 NMat=1 NMatS=1 NMatT=0.
 Defaulting to unpruned grid for atomic number  40.
 Defaulting to unpruned grid for atomic number  40.
 Defaulting to unpruned grid for atomic number  40.
 Defaulting to unpruned grid for atomic number  40.
 Defaulting to unpruned grid for atomic number  40.
 Defaulting to unpruned grid for atomic number  40.
 Defaulting to unpruned grid for atomic number  40.
 Defaulting to unpruned grid for atomic number  40.
 Defaulting to unpruned grid for atomic number  40.
 Defaulting to unpruned grid for atomic number  40.
 Defaulting to unpruned grid for atomic number  40.
 Defaulting to unpruned grid for atomic number  40.
 Defaulting to unpruned grid for atomic number  40.
 Defaulting to unpruned grid for atomic number  40.
 Defaulting to unpruned grid for atomic number  40.
 Defaulting to unpruned grid for atomic number  40.
 ***** Axes restored to original set *****
 -------------------------------------------------------------------
 Center     Atomic                   Forces (Hartrees/Bohr)
 Number     Number              X              Y              Z
 -------------------------------------------------------------------
      1       14          -0.000232216   -0.000244441    0.004410093
      2        8           0.000376305    0.001370206    0.000153956
      3        8          -0.000729916   -0.001011487    0.000196548
      4        8          -0.001340470   -0.000291457   -0.002445555
      5       40           0.004914193   -0.001842818    0.001255923
      6        1           0.000288216   -0.000422637   -0.000298792
      7        1           0.000035996    0.000313169   -0.000023099
      8        8           0.000384565   -0.000100115   -0.003313427
      9        1          -0.001009554    0.000368418    0.001056917
     10        8          -0.002070100    0.003076118    0.000038878
     11        1           0.000332935   -0.000505549   -0.000697591
     12        8          -0.000241616   -0.001671933   -0.001319737
     13        1          -0.000353209    0.000886884    0.001283789
     14        8          -0.000538992    0.000279504   -0.000522567
     15        1           0.000183863   -0.000203864    0.000224665
 -------------------------------------------------------------------
 Cartesian Forces:  Max     0.004914193 RMS     0.001464919

 GradGradGradGradGradGradGradGradGradGradGradGradGradGradGradGradGradGrad
 Berny optimization.
 Using GEDIIS/GDIIS optimizer.
 FormGI is forming the generalized inverse of G from B-inverse, IUseBI=4.
 Internal  Forces:  Max     0.003390527 RMS     0.001032348
 Search for a local minimum.
 Step number   3 out of a maximum of   67
 All quantities printed in internal units (Hartrees-Bohrs-Radians)
 Mixed Optimization -- En-DIIS/RFO-DIIS
 Update second derivatives using D2CorX and points    1    2    3
 DE= -1.53D-03 DEPred=-1.24D-03 R= 1.24D+00
 TightC=F SS=  1.41D+00  RLast= 2.11D-01 DXNew= 8.4853D-01 6.3259D-01
 Trust test= 1.24D+00 RLast= 2.11D-01 DXMaxT set to 6.33D-01
 ITU=  1  1  0
 Use linear search instead of GDIIS.
     Eigenvalues ---    0.00229   0.00230   0.00230   0.00238   0.02701
     Eigenvalues ---    0.03734   0.03770   0.03959   0.05183   0.10436
     Eigenvalues ---    0.10535   0.11543   0.12191   0.12842   0.15180
     Eigenvalues ---    0.16000   0.16000   0.16000   0.16000   0.16203
     Eigenvalues ---    0.18561   0.19421   0.19812   0.20007   0.20065
     Eigenvalues ---    0.20349   0.21865   0.25167   0.36711   0.43221
     Eigenvalues ---    0.43824   0.46049   0.54426   0.54625   0.54681
     Eigenvalues ---    0.54847   0.54984   0.553461000.000001000.00000
     Eigenvalues --- 1000.000001000.000001000.000001000.000001000.00000
     Eigenvalues --- 1000.000001000.000001000.000001000.000001000.00000
     Eigenvalues --- 1000.000001000.000001000.000001000.000001000.00000
     Eigenvalues --- 1000.000001000.00000
 RFO step:  Lambda=-3.34588555D-04 EMin= 2.29023435D-03
 Quartic linear search produced a step of  0.35587.
 Iteration  1 RMS(Cart)=  0.03979452 RMS(Int)=  0.00073794
 Iteration  2 RMS(Cart)=  0.00094811 RMS(Int)=  0.00027796
 Iteration  3 RMS(Cart)=  0.00000049 RMS(Int)=  0.00027796
 Iteration  1 RMS(Cart)=  0.00000000 RMS(Int)=  0.00000000
 Variable       Old X    -DE/DX   Delta X   Delta X   Delta X     New X
                                 (Linear)    (Quad)   (Total)
    R1        3.11301   0.00046   0.00140   0.00134   0.00275   3.11575
    R2        3.11821   0.00097   0.00187   0.00233   0.00420   3.12241
    R3        3.08947   0.00210   0.00362   0.00444   0.00806   3.09752
    R4        3.14086  -0.00227  -0.01232  -0.00388  -0.01620   3.12467
    R5        1.81931  -0.00001  -0.00019   0.00008  -0.00011   1.81920
    R6        1.82051  -0.00025  -0.00019  -0.00058  -0.00077   1.81974
    R7        3.76166   0.00223   0.00704  -0.00000   0.00704   3.76870
    R8        3.72178  -0.00288   0.00190  -0.02120  -0.01930   3.70247
    R9        3.72340  -0.00089   0.00316  -0.01170  -0.00854   3.71485
   R10        3.69568   0.00014   0.00748  -0.00543   0.00205   3.69773
   R11        1.81866   0.00107  -0.00043   0.00233   0.00190   1.82056
   R12        1.81969  -0.00058  -0.00027  -0.00108  -0.00135   1.81834
   R13        1.82074  -0.00018  -0.00012  -0.00038  -0.00050   1.82025
   R14        1.81577   0.00012   0.00008   0.00028   0.00036   1.81612
    A1        1.86807   0.00063   0.00065   0.00371   0.00414   1.87221
    A2        2.01569  -0.00077  -0.00900  -0.00505  -0.01422   2.00148
    A3        1.85260  -0.00017   0.00240  -0.00296  -0.00047   1.85213
    A4        1.90393   0.00024  -0.00910   0.00299  -0.00628   1.89765
    A5        1.97820   0.00008  -0.00046   0.00174   0.00133   1.97952
    A6        1.84823  -0.00005   0.01593  -0.00066   0.01535   1.86358
    A7        2.01848  -0.00091  -0.00207  -0.00637  -0.00845   2.01003
    A8        2.00249  -0.00032   0.00109  -0.00322  -0.00212   2.00037
    A9        2.37619  -0.00339   0.00000   0.00000  -0.00000   2.37619
   A10        1.92801  -0.00037  -0.00876  -0.00566  -0.01540   1.91261
   A11        1.92968  -0.00102  -0.01106  -0.01037  -0.02228   1.90740
   A12        1.89409   0.00024   0.01004   0.00367   0.01395   1.90804
   A13        1.93371  -0.00059  -0.00982  -0.00607  -0.01691   1.91681
   A14        1.88554   0.00082   0.01139   0.00961   0.02114   1.90668
   A15        1.89144   0.00101   0.01075   0.00984   0.02081   1.91225
   A16        1.99485   0.00024  -0.00681   0.00333  -0.00348   1.99137
   A17        2.35637   0.00125   0.00856   0.00829   0.01685   2.37322
   A18        2.26744   0.00289   0.00984   0.02072   0.03056   2.29800
   A19        2.45805  -0.00059  -0.00303  -0.00468  -0.00771   2.45034
    D1       -0.51371  -0.00015   0.00488  -0.00575  -0.00089  -0.51460
    D2        1.60975   0.00012  -0.01268  -0.00243  -0.01505   1.59470
    D3       -2.63148  -0.00049   0.00380  -0.00814  -0.00438  -2.63586
    D4        2.61404  -0.00026  -0.00573  -0.00256  -0.00828   2.60576
    D5        0.42169   0.00013   0.01101  -0.00061   0.01037   0.43205
    D6       -1.63273  -0.00002  -0.00263  -0.00286  -0.00546  -1.63819
    D7        1.83226  -0.00032   0.00792  -0.00101   0.00667   1.83893
    D8       -2.34685   0.00015  -0.00502   0.00263  -0.00217  -2.34902
    D9       -0.21215   0.00036  -0.00105   0.00598   0.00497  -0.20718
   D10        0.05577   0.00116   0.01375   0.02440   0.03805   0.09383
   D11       -1.98971   0.00045   0.01169   0.02081   0.03257  -1.95714
   D12        2.20690   0.00014   0.01275   0.01657   0.02936   2.23626
   D13        1.21655  -0.00086  -0.03372   0.03815   0.00488   1.22143
   D14       -0.93029   0.00085  -0.00589   0.05692   0.05054  -0.87975
   D15       -3.00254   0.00007  -0.01882   0.04876   0.02997  -2.97257
   D16       -1.52177   0.00075  -0.00096  -0.01021  -0.01156  -1.53334
   D17        0.62272  -0.00121  -0.02952  -0.03151  -0.06061   0.56211
   D18        2.69210   0.00018  -0.01505  -0.01720  -0.03227   2.65983
   D19       -2.09519  -0.00057  -0.00815   0.01209   0.00447  -2.09072
   D20        2.04447   0.00101   0.01921   0.03068   0.04939   2.09385
   D21       -0.02133  -0.00026   0.00437   0.01650   0.02084  -0.00049
   D22       -2.05735  -0.00025  -0.00389  -0.01194  -0.01586  -2.07321
   D23        0.03347  -0.00009  -0.00265  -0.01113  -0.01385   0.01962
   D24        2.12961   0.00025  -0.00226  -0.00731  -0.00947   2.12013
         Item               Value     Threshold  Converged?
 Maximum Force            0.002887     0.000450     NO 
 RMS     Force            0.000938     0.000300     NO 
 Maximum Displacement     0.134418     0.001800     NO 
 RMS     Displacement     0.040145     0.001200     NO 
 Predicted change in Energy=-2.883167D-04
 GradGradGradGradGradGradGradGradGradGradGradGradGradGradGradGradGradGrad

                          Input orientation:                          
 ---------------------------------------------------------------------
 Center     Atomic      Atomic             Coordinates (Angstroms)
 Number     Number       Type             X           Y           Z
 ---------------------------------------------------------------------
      1         14           0       -1.808912   -0.014527   -0.052043
      2          8           0       -2.673353    1.357075   -0.351943
      3          8           0       -2.866589   -1.282769   -0.106900
      4          8           0       -0.589641   -0.299968   -1.109717
      5         40           0        1.399690   -0.161821   -1.082439
      6          1           0       -3.444932    1.239671   -0.915530
      7          1           0       -2.481928   -2.113110   -0.406686
      8          8           0       -1.112888    0.196963    1.432845
      9          1           0       -1.384708    1.004009    1.883318
     10          8           0        2.138332   -1.548730    0.087866
     11          1           0        2.339800   -1.627693    1.025441
     12          8           0        1.918122    1.614981   -0.420145
     13          1           0        2.424545    2.326883   -0.825790
     14          8           0        2.091059   -0.412581   -2.895728
     15          1           0        2.663511   -1.001283   -3.395078
 ---------------------------------------------------------------------
                    Distance matrix (angstroms):
                    1          2          3          4          5
     1  Si   0.000000
     2  O    1.648785   0.000000
     3  O    1.652309   2.658226   0.000000
     4  O    1.639138   2.768008   2.675076   0.000000
     5  Zr   3.373209   4.407987   4.517670   1.994309   0.000000
     6  H    2.234991   0.962678   2.711285   3.249751   5.046028
     7  H    2.232212   3.475892   0.962965   2.713391   4.396719
     8  O    1.653502   2.639390   2.763311   2.642981   3.573293
     9  H    2.227777   2.604160   3.374358   3.360170   4.231754
    10  O    4.237226   5.638213   5.015766   3.230394   1.959265
    11  H    4.579856   5.994808   5.339256   3.860489   2.734181
    12  O    4.084309   4.599218   5.602547   3.229770   1.965815
    13  H    4.899290   5.210913   6.445346   4.008276   2.703672
    14  O    4.843012   5.683498   5.754395   3.223146   1.956755
    15  H    5.670285   6.580626   6.439981   4.037042   2.765906
                    6          7          8          9         10
     6  H    0.000000
     7  H    3.525257   0.000000
     8  O    3.469947   3.254932   0.000000
     9  H    3.483333   4.020503   0.963398   0.000000
    10  O    6.320982   4.680803   3.927702   4.706584   0.000000
    11  H    6.741829   5.053284   3.926372   4.640449   0.962222
    12  O    5.398945   5.767086   3.825097   4.072826   3.211796
    13  H    5.969995   6.630435   4.706529   4.857948   3.992125
    14  O    6.107235   5.477166   5.419720   6.076756   3.192946
    15  H    6.962981   6.053279   6.245463   6.947714   3.564605
                   11         12         13         14         15
    11  H    0.000000
    12  O    3.575258   0.000000
    13  H    4.367255   0.963232   0.000000
    14  O    4.112656   3.204595   3.449713   0.000000
    15  H    4.476401   4.031211   4.211298   0.961052   0.000000
 Stoichiometry    H6O7SiZr
 Framework group  C1[X(H6O7SiZr)]
 Deg. of freedom    39
 Full point group                 C1      NOp   1
 Largest Abelian subgroup         C1      NOp   1
 Largest concise Abelian subgroup C1      NOp   1
                         Standard orientation:                         
 ---------------------------------------------------------------------
 Center     Atomic      Atomic             Coordinates (Angstroms)
 Number     Number       Type             X           Y           Z
 ---------------------------------------------------------------------
      1         14           0       -2.081416   -0.058205   -0.056125
      2          8           0       -2.880408    1.054987   -0.973136
      3          8           0       -3.000923   -1.430922   -0.039382
      4          8           0       -0.580002   -0.437012   -0.593742
[...]
 ! R11   R(8,9)                  0.9632         -DE/DX =    0.0                 !
 ! R12   R(10,11)                0.9616         -DE/DX =    0.0                 !
 ! R13   R(12,13)                0.9605         -DE/DX =    0.0                 !
 ! R14   R(14,15)                0.9614         -DE/DX =    0.0                 !
 ! A1    A(2,1,3)              106.1659         -DE/DX =    0.0                 !
 ! A2    A(2,1,4)              115.6681         -DE/DX =    0.0                 !
 ! A3    A(2,1,8)              106.4358         -DE/DX =    0.0                 !
 ! A4    A(3,1,4)              109.3947         -DE/DX =    0.0                 !
 ! A5    A(3,1,8)              114.485          -DE/DX =    0.0                 !
 ! A6    A(4,1,8)              104.9377         -DE/DX =    0.0                 !
 ! A7    A(1,2,6)              114.6798         -DE/DX =    0.0                 !
 ! A8    A(1,3,7)              114.0722         -DE/DX =    0.0                 !
 ! A9    A(1,4,5)              136.1457         -DE/DX =   -0.0001              !
 ! A10   A(4,5,10)             110.3892         -DE/DX =    0.0                 !
 ! A11   A(4,5,12)             109.836          -DE/DX =    0.0                 !
 ! A12   A(4,5,14)             107.5263         -DE/DX =    0.0                 !
 ! A13   A(10,5,12)            109.8445         -DE/DX =    0.0                 !
 ! A14   A(10,5,14)            108.8218         -DE/DX =    0.0                 !
 ! A15   A(12,5,14)            110.3891         -DE/DX =    0.0                 !
 ! A16   A(1,8,9)              115.3356         -DE/DX =    0.0                 !
 ! A17   A(5,10,11)            138.2218         -DE/DX =    0.0                 !
 ! A18   A(5,12,13)            143.0813         -DE/DX =    0.0                 !
 ! A19   A(5,14,15)            138.436          -DE/DX =    0.0                 !
 ! D1    D(3,1,2,6)            -34.5129         -DE/DX =    0.0                 !
 ! D2    D(4,1,2,6)             87.0148         -DE/DX =    0.0                 !
 ! D3    D(8,1,2,6)           -156.8849         -DE/DX =    0.0                 !
 ! D4    D(2,1,3,7)            152.7434         -DE/DX =    0.0                 !
 ! D5    D(4,1,3,7)             27.2806         -DE/DX =    0.0                 !
 ! D6    D(8,1,3,7)            -90.1457         -DE/DX =    0.0                 !
 ! D7    D(2,1,4,5)            101.6359         -DE/DX =    0.0                 !
 ! D8    D(3,1,4,5)           -138.5838         -DE/DX =    0.0                 !
 ! D9    D(8,1,4,5)            -15.3075         -DE/DX =    0.0                 !
 ! D10   D(2,1,8,9)             32.7837         -DE/DX =    0.0                 !
 ! D11   D(3,1,8,9)            -84.1725         -DE/DX =    0.0                 !
 ! D12   D(4,1,8,9)            155.884          -DE/DX =    0.0                 !
 ! D13   D(1,4,5,10)            66.7976         -DE/DX =    0.0                 !
 ! D14   D(1,4,5,12)           -54.4729         -DE/DX =    0.0                 !
 ! D15   D(1,4,5,14)          -174.6264         -DE/DX =    0.0                 !
 ! D16   D(4,5,10,11)          -89.5962         -DE/DX =    0.0                 !
 ! D17   D(12,5,10,11)          31.6692         -DE/DX =    0.0                 !
 ! D18   D(14,5,10,11)         152.6216         -DE/DX =    0.0                 !
 ! D19   D(4,5,12,13)         -108.1879         -DE/DX =    0.0                 !
 ! D20   D(10,5,12,13)         130.2152         -DE/DX =    0.0                 !
 ! D21   D(14,5,12,13)          10.2114         -DE/DX =    0.0                 !
 ! D22   D(4,5,14,15)         -126.7122         -DE/DX =    0.0                 !
 ! D23   D(10,5,14,15)          -7.1322         -DE/DX =    0.0                 !
 ! D24   D(12,5,14,15)         113.4853         -DE/DX =    0.0                 !
 --------------------------------------------------------------------------------
 GradGradGradGradGradGradGradGradGradGradGradGradGradGradGradGradGradGrad

                          Input orientation:                          
 ---------------------------------------------------------------------
 Center     Atomic      Atomic             Coordinates (Angstroms)
 Number     Number       Type             X           Y           Z
 ---------------------------------------------------------------------
      1         14           0       -1.793966   -0.000645   -0.064964
      2          8           0       -2.614314    1.412612   -0.288368
      3          8           0       -2.918661   -1.209049   -0.178277
      4          8           0       -0.578606   -0.288985   -1.121085
      5         40           0        1.415029   -0.150214   -1.096896
      6          1           0       -3.347412    1.358068   -0.910899
      7          1           0       -2.560575   -2.052586   -0.476075
      8          8           0       -1.056828    0.114220    1.412880
      9          1           0       -1.537279    0.623099    2.074697
     10          8           0        2.175153   -1.457382    0.148768
     11          1           0        2.413522   -1.507016    1.078986
     12          8           0        1.948210    1.656436   -0.570610
     13          1           0        2.326428    2.473521   -0.905021
     14          8           0        2.056739   -0.552220   -2.904984
     15          1           0        2.684669   -1.142759   -3.330680
 ---------------------------------------------------------------------
                    Distance matrix (angstroms):
                    1          2          3          4          5
     1  Si   0.000000
     2  O    1.649295   0.000000
     3  O    1.654697   2.641563   0.000000
     4  O    1.635735   2.780819   2.685380   0.000000
     5  Zr   3.374152   4.396788   4.554763   1.998605   0.000000
     6  H    2.230449   0.963303   2.703822   3.228505   4.999035
     7  H    2.228713   3.470694   0.963567   2.730299   4.450828
     8  O    1.655473   2.646853   2.783747   2.610029   3.532560
     9  H    2.243456   2.714297   3.215723   3.458897   4.401493
    10  O    4.233399   5.600621   5.110340   3.249749   1.959122
    11  H    4.613104   5.972690   5.486499   3.908547   2.751793
    12  O    4.123769   4.577744   5.661393   3.236121   1.955822
    13  H    4.879020   5.090847   6.449841   4.014641   2.784142
    14  O    4.816417   5.703155   5.711477   3.193217   1.960251
    15  H    5.659283   6.623051   6.429568   4.032394   2.754437
                    6          7          8          9         10
     6  H    0.000000
     7  H    3.527144   0.000000
     8  O    3.491975   3.244142   0.000000
     9  H    3.567989   3.835735   0.963220   0.000000
    10  O    6.288750   4.813712   3.809674   4.671163   0.000000
    11  H    6.734739   5.239991   3.844895   4.597572   0.961555
    12  O    5.314925   5.839086   3.917004   4.496006   3.203884
    13  H    5.782451   6.674762   4.731320   5.218335   4.072513
    14  O    6.068807   5.428655   5.364923   6.252645   3.187279
    15  H    6.963869   6.040624   6.170912   7.082457   3.530602
                   11         12         13         14         15
    11  H    0.000000
    12  O    3.597932   0.000000
    13  H    4.448432   0.960473   0.000000
    14  O    4.112292   3.215468   3.636989   0.000000
    15  H    4.432985   3.999481   4.369169   0.961379   0.000000
 Stoichiometry    H6O7SiZr
 Framework group  C1[X(H6O7SiZr)]
 Deg. of freedom    39
 Full point group                 C1      NOp   1
 Largest Abelian subgroup         C1      NOp   1
 Largest concise Abelian subgroup C1      NOp   1
                         Standard orientation:                         
 ---------------------------------------------------------------------
 Center     Atomic      Atomic             Coordinates (Angstroms)
 Number     Number       Type             X           Y           Z
 ---------------------------------------------------------------------
      1         14           0       -2.080540   -0.061518   -0.049742
      2          8           0       -2.866892    1.042403   -0.989521
      3          8           0       -3.045484   -1.405204   -0.012190
      4          8           0       -0.582548   -0.482460   -0.554181
      5         40           0        1.293347   -0.019757   -0.042960
      6          1           0       -3.365187    0.664597   -1.722267
      7          1           0       -2.566506   -2.229214    0.129410
      8          8           0       -1.848396    0.657861    1.423076
      9          1           0       -2.538501    1.272355    1.695007
     10          8           0        1.698018   -0.694498    1.751232
     11          1           0        1.636845   -0.391790    2.661844
     12          8           0        1.535496    1.920374   -0.092923
     13          1           0        1.953506    2.629556   -0.587731
     14          8           0        2.487900   -0.890467   -1.330395
     15          1           0        3.248779   -1.478043   -1.322259
 ---------------------------------------------------------------------
 Rotational constants (GHZ):           1.6768100           0.5152181           0.5101765

 **********************************************************************

            Population analysis using the SCF Density.

 **********************************************************************

 Orbital symmetries:
       Occupied  (A) (A) (A) (A) (A) (A) (A) (A) (A) (A) (A) (A)
                 (A) (A) (A) (A) (A) (A) (A) (A) (A) (A) (A) (A)
                 (A) (A) (A) (A) (A) (A) (A) (A) (A) (A) (A) (A)
                 (A) (A) (A) (A) (A) (A) (A) (A)
       Virtual   (A) (A) (A) (A) (A) (A) (A) (A) (A) (A) (A) (A)
                 (A) (A) (A) (A) (A) (A) (A) (A) (A) (A) (A) (A)
                 (A) (A) (A) (A) (A) (A) (A) (A) (A) (A) (A) (A)
                 (A) (A) (A) (A) (A) (A) (A) (A) (A) (A) (A) (A)
                 (A) (A) (A) (A) (A) (A) (A) (A) (A) (A) (A) (A)
                 (A) (A) (A) (A) (A) (A) (A) (A) (A) (A) (A) (A)
                 (A) (A) (A) (A) (A) (A) (A) (A) (A) (A) (A) (A)
                 (A) (A) (A) (A) (A) (A) (A) (A) (A) (A) (A) (A)
                 (A) (A) (A) (A) (A) (A) (A) (A) (A) (A) (A) (A)
                 (A) (A) (A) (A) (A) (A) (A) (A) (A) (A) (A) (A)
                 (A) (A) (A) (A)
 The electronic state is 1-A.
 Alpha  occ. eigenvalues --  -66.18527 -19.13891 -19.13888 -19.13857 -19.13833
 Alpha  occ. eigenvalues --  -19.13764 -19.13746 -19.12399  -5.32810  -3.68757
 Alpha  occ. eigenvalues --   -3.68748  -3.68724  -2.05972  -1.26734  -1.26641
 Alpha  occ. eigenvalues --   -1.26269  -1.01804  -0.98682  -0.98403  -0.95740
 Alpha  occ. eigenvalues --   -0.94701  -0.94622  -0.92863  -0.56261  -0.51080
 Alpha  occ. eigenvalues --   -0.50694  -0.48301  -0.48091  -0.47808  -0.43976
 Alpha  occ. eigenvalues --   -0.38409  -0.36730  -0.36321  -0.34972  -0.34684
 Alpha  occ. eigenvalues --   -0.33460  -0.33343  -0.32968  -0.32094  -0.31351
 Alpha  occ. eigenvalues --   -0.31320  -0.30779  -0.29881  -0.29511
 Alpha virt. eigenvalues --   -0.01346  -0.00656  -0.00306   0.00916   0.01533
 Alpha virt. eigenvalues --    0.01896   0.02493   0.02742   0.03071   0.09074
 Alpha virt. eigenvalues --    0.09998   0.10174   0.15388   0.15775   0.16030
 Alpha virt. eigenvalues --    0.17320   0.18520   0.19795   0.20282   0.23288
 Alpha virt. eigenvalues --    0.23903   0.24334   0.24995   0.25953   0.27014
 Alpha virt. eigenvalues --    0.28718   0.29708   0.34376   0.38586   0.39749
 Alpha virt. eigenvalues --    0.42373   0.57676   0.64575   0.71367   0.79730
 Alpha virt. eigenvalues --    0.80876   0.82527   0.85744   0.86612   0.87409
 Alpha virt. eigenvalues --    0.91439   0.93168   0.93992   0.94891   0.96368
 Alpha virt. eigenvalues --    0.97594   0.98727   0.99851   1.00288   1.03656
 Alpha virt. eigenvalues --    1.05687   1.07157   1.08382   1.09483   1.10112
 Alpha virt. eigenvalues --    1.15369   1.16828   1.19332   1.20413   1.21211
 Alpha virt. eigenvalues --    1.22953   1.24896   1.29396   1.36980   1.46743
 Alpha virt. eigenvalues --    1.47170   1.49062   1.53062   1.53524   1.56284
 Alpha virt. eigenvalues --    1.58743   1.59106   1.59770   1.61412   1.62666
 Alpha virt. eigenvalues --    1.63691   1.64334   1.66654   1.67276   1.71060
 Alpha virt. eigenvalues --    1.73590   1.74202   1.78976   1.80144   1.81044
 Alpha virt. eigenvalues --    1.81499   1.82910   1.84450   1.86173   1.88420
 Alpha virt. eigenvalues --    1.90866   1.92148   2.04110   2.06082   2.14914
 Alpha virt. eigenvalues --    2.35447   2.36064   2.37438   2.37818   2.38237
 Alpha virt. eigenvalues --    2.38905   2.44435   2.59480   2.61342   2.62261
 Alpha virt. eigenvalues --    2.63328   2.64085   2.64443   2.64690   2.65025
 Alpha virt. eigenvalues --    2.65085   2.65191   2.66202   2.67082   2.74333
 Alpha virt. eigenvalues --    2.76519   2.81918   3.40893   3.42520   3.43327
 Alpha virt. eigenvalues --    3.43859   3.44004   3.47435   4.05522
          Condensed to atoms (all electrons):
               1          2          3          4          5          6
     1  Si  11.490531   0.387644   0.388054   0.336800  -0.041522  -0.021606
     2  O    0.387644   7.963985  -0.021439  -0.011940   0.001496   0.302669
     3  O    0.388054  -0.021439   7.968278  -0.019250  -0.001345  -0.000546
     4  O    0.336800  -0.011940  -0.019250   8.292317   0.179839  -0.000348
     5  Zr  -0.041522   0.001496  -0.001345   0.179839   9.731651  -0.000938
     6  H   -0.021606   0.302669  -0.000546  -0.000348  -0.000938   0.388882
     7  H   -0.022645   0.000492   0.300997   0.001982  -0.001215  -0.000060
     8  O    0.335636  -0.019576  -0.014880  -0.022104   0.037668   0.000558
     9  H   -0.019817   0.000021  -0.000834   0.000934  -0.002768   0.000001
    10  O   -0.003483   0.000000   0.000001   0.000603   0.221502  -0.000000
    11  H    0.000055  -0.000000   0.000000  -0.000082  -0.016605   0.000000
    12  O   -0.003364   0.000003   0.000000   0.000523   0.218957  -0.000000
    13  H    0.000069  -0.000001  -0.000000  -0.000039  -0.015403  -0.000000
    14  O    0.000113   0.000000   0.000000   0.000682   0.213956   0.000000
    15  H   -0.000027   0.000000  -0.000000  -0.000031  -0.015663  -0.000000
               7          8          9         10         11         12
     1  Si  -0.022645   0.335636  -0.019817  -0.003483   0.000055  -0.003364
     2  O    0.000492  -0.019576   0.000021   0.000000  -0.000000   0.000003
     3  O    0.300997  -0.014880  -0.000834   0.000001   0.000000   0.000000
     4  O    0.001982  -0.022104   0.000934   0.000603  -0.000082   0.000523
     5  Zr  -0.001215   0.037668  -0.002768   0.221502  -0.016605   0.218957
     6  H   -0.000060   0.000558   0.000001  -0.000000   0.000000  -0.000000
     7  H    0.392284  -0.000685   0.000076  -0.000004  -0.000000   0.000000
     8  O   -0.000685   7.997112   0.301904  -0.000239  -0.000114  -0.000174
     9  H    0.000076   0.301904   0.387631   0.000006   0.000002   0.000002
    10  O   -0.000004  -0.000239   0.000006   8.174334   0.297940   0.000783
    11  H   -0.000000  -0.000114   0.000002   0.297940   0.385270  -0.000462
    12  O    0.000000  -0.000174   0.000002   0.000783  -0.000462   8.174417
    13  H    0.000000   0.000001  -0.000000  -0.000052  -0.000002   0.298842
    14  O   -0.000000  -0.000000   0.000000   0.000942  -0.000010   0.000900
    15  H    0.000000  -0.000000   0.000000  -0.000510  -0.000001  -0.000086
              13         14         15
     1  Si   0.000069   0.000113  -0.000027
     2  O   -0.000001   0.000000   0.000000
     3  O   -0.000000   0.000000  -0.000000
     4  O   -0.000039   0.000682  -0.000031
     5  Zr  -0.015403   0.213956  -0.015663
     6  H   -0.000000   0.000000  -0.000000
     7  H    0.000000  -0.000000   0.000000
     8  O    0.000001  -0.000000  -0.000000
     9  H   -0.000000   0.000000   0.000000
    10  O   -0.000052   0.000942  -0.000510
    11  H   -0.000002  -0.000010  -0.000001
    12  O    0.298842   0.000900  -0.000086
    13  H    0.385995  -0.000448  -0.000004
    14  O   -0.000448   8.180601   0.297221
    15  H   -0.000004   0.297221   0.387622
 Mulliken charges:
               1
     1  Si   1.173563
     2  O   -0.603353
     3  O   -0.599035
     4  O   -0.759886
     5  Zr   1.490390
     6  H    0.331389
     7  H    0.328779
     8  O   -0.615106
     9  H    0.332844
    10  O   -0.691822
    11  H    0.334010
    12  O   -0.690341
    13  H    0.331044
    14  O   -0.693957
    15  H    0.331480
 Sum of Mulliken charges =  -0.00000
 Mulliken charges with hydrogens summed into heavy atoms:
               1
     1  Si   1.173563
     2  O   -0.271965
     3  O   -0.270256
     4  O   -0.759886
     5  Zr   1.490390
     8  O   -0.282262
    10  O   -0.357812
    12  O   -0.359297
    14  O   -0.362476
 Electronic spatial extent (au):  <R**2>=           2114.1288
 Charge=              0.0000 electrons
 Dipole moment (field-independent basis, Debye):
    X=              1.3570    Y=             -0.0060    Z=              0.2823  Tot=              1.3861
 Quadrupole moment (field-independent basis, Debye-Ang):
   XX=            -66.4668   YY=            -67.8887   ZZ=            -68.7484
   XY=              0.0486   XZ=              0.1129   YZ=              0.3779
 Traceless Quadrupole moment (field-independent basis, Debye-Ang):
   XX=              1.2345   YY=             -0.1874   ZZ=             -1.0471
   XY=              0.0486   XZ=              0.1129   YZ=              0.3779
 Octapole moment (field-independent basis, Debye-Ang**2):
  XXX=             57.4367  YYY=             -4.4896  ZZZ=             15.9432  XYY=             20.3790
  XXY=              6.4025  XXZ=            -13.6391  XZZ=              0.4558  YZZ=              8.9178
  YYZ=             -4.7339  XYZ=             -4.3563
 Hexadecapole moment (field-independent basis, Debye-Ang**3):
 XXXX=          -1687.8677 YYYY=           -325.7085 ZZZZ=           -317.6976 XXXY=            -92.4855
 XXXZ=             -9.3075 YYYX=             53.0933 YYYZ=             -8.4321 ZZZX=             56.6280
 ZZZY=             -0.5723 XXYY=           -311.2757 XXZZ=           -295.5170 YYZZ=           -129.1964
 XXYZ=             29.3060 YYXZ=            -51.5887 ZZXY=            -13.4651
 N-N= 6.412389054322D+02 E-N=-3.319289752547D+03  KE= 8.297831881490D+02
 1\1\GINC-GRA600\FOpt\RB3LYP\Gen\H6O7Si1Zr1\SARASHS\24-Jun-2020\0\\#n B
 3LYP/GEN PSEUDO=READ Opt(modredundant)\\Title\\0,1\Si,-1.7939655596,-0
 .0006448677,-0.0649643711\O,-2.6143140383,1.4126117009,-0.2883681634\O
 ,-2.9186612755,-1.2090493905,-0.1782772887\O,-0.5786057231,-0.28898450
 51,-1.1210848573\Zr,1.41502932,-0.1502136137,-1.0968959595\H,-3.347411
 9788,1.3580679376,-0.9108994719\H,-2.5605754067,-2.0525855772,-0.47607
 48465\O,-1.0568276048,0.114220082,1.4128804875\H,-1.5372791993,0.62309
 94757,2.0746966659\O,2.1751531967,-1.4573824944,0.1487681057\H,2.41352
 20817,-1.5070164228,1.0789855754\O,1.9482100684,1.6564356123,-0.570610
 4616\H,2.3264284839,2.4735210222,-0.9050212315\O,2.0567390735,-0.55221
 96783,-2.9049841806\H,2.684668562,-1.1427592809,-3.3306800024\\Version
 =ES64L-G16RevB.01\State=1-A\HF=-866.6873163\RMSD=2.441e-09\RMSF=2.105e
 -05\Dipole=0.5361538,-0.0723664,-0.0684162\Quadrupole=0.8441557,-0.413
 8939,-0.4302618,0.0633175,-0.3273092,0.4190177\PG=C01 [X(H6O7Si1Zr1)]\
 \@


 KEEP CLOSE TO NATURES HEART, YOURSELF;
 AND BREAK CLEAR AWAY, ONCE IN A WHILE, AND
 CLIMB A MOUNTAIN OR SPEND A WEEK IN THE
 WOODS.  WASH YOUR SPIRIT CLEAN...
                                         -- JOHN MUIR
 Job cpu time:       0 days  0 hours 42 minutes 54.9 seconds.
 Elapsed time:       0 days  0 hours  2 minutes 47.7 seconds.
 File lengths (MBytes):  RWF=     23 Int=      0 D2E=      0 Chk=      3 Scr=      1
 Normal termination of Gaussian 16 at Wed Jun 24 13:58:12 2020.
