 Entering Gaussian System, Link 0=g16
 Initial command:
 /opt/software/gaussian/g16.b01/l1.exe "/localscratch/sarashs.33453151.0/Gau-24118.inp" -scrdir="/localscratch/sarashs.33453151.0/"
 Entering Link 1 = /opt/software/gaussian/g16.b01/l1.exe PID=     24121.
  
 Copyright (c) 1988-2017, Gaussian, Inc.  All Rights Reserved.
  
 This is part of the Gaussian(R) 16 program.  It is based on
 the Gaussian(R) 09 system (copyright 2009, Gaussian, Inc.),
 the Gaussian(R) 03 system (copyright 2003, Gaussian, Inc.),
 the Gaussian(R) 98 system (copyright 1998, Gaussian, Inc.),
 the Gaussian(R) 94 system (copyright 1995, Gaussian, Inc.),
 the Gaussian 92(TM) system (copyright 1992, Gaussian, Inc.),
 the Gaussian 90(TM) system (copyright 1990, Gaussian, Inc.),
 the Gaussian 88(TM) system (copyright 1988, Gaussian, Inc.),
 the Gaussian 86(TM) system (copyright 1986, Carnegie Mellon
 University), and the Gaussian 82(TM) system (copyright 1983,
 Carnegie Mellon University). Gaussian is a federally registered
 trademark of Gaussian, Inc.
  
 This software contains proprietary and confidential information,
 including trade secrets, belonging to Gaussian, Inc.
  
 This software is provided under written license and may be
 used, copied, transmitted, or stored only in accord with that
 written license.
  
 The following legend is applicable only to US Government
 contracts under FAR:
  
                    RESTRICTED RIGHTS LEGEND
  
 Use, reproduction and disclosure by the US Government is
 subject to restrictions as set forth in subparagraphs (a)
 and (c) of the Commercial Computer Software - Restricted
 Rights clause in FAR 52.227-19.
  
 Gaussian, Inc.
 340 Quinnipiac St., Bldg. 40, Wallingford CT 06492
  
  
 ---------------------------------------------------------------
 Warning -- This program may not be used in any manner that
 competes with the business of Gaussian, Inc. or will provide
 assistance to any competitor of Gaussian, Inc.  The licensee
 of this program is prohibited from giving any competitor of
 Gaussian, Inc. access to this program.  By using this program,
 the user acknowledges that Gaussian, Inc. is engaged in the
 business of creating and licensing software in the field of
 computational chemistry and represents and warrants to the
 licensee that it is not a competitor of Gaussian, Inc. and that
 it will not use this program in any manner prohibited above.
 ---------------------------------------------------------------
  

 Cite this work as:
 Gaussian 16, Revision B.01,
 M. J. Frisch, G. W. Trucks, H. B. Schlegel, G. E. Scuseria, 
 M. A. Robb, J. R. Cheeseman, G. Scalmani, V. Barone, 
 G. A. Petersson, H. Nakatsuji, X. Li, M. Caricato, A. V. Marenich, 
 J. Bloino, B. G. Janesko, R. Gomperts, B. Mennucci, H. P. Hratchian, 
 J. V. Ortiz, A. F. Izmaylov, J. L. Sonnenberg, D. Williams-Young, 
 F. Ding, F. Lipparini, F. Egidi, J. Goings, B. Peng, A. Petrone, 
 T. Henderson, D. Ranasinghe, V. G. Zakrzewski, J. Gao, N. Rega, 
 G. Zheng, W. Liang, M. Hada, M. Ehara, K. Toyota, R. Fukuda, 
 J. Hasegawa, M. Ishida, T. Nakajima, Y. Honda, O. Kitao, H. Nakai, 
 T. Vreven, K. Throssell, J. A. Montgomery, Jr., J. E. Peralta, 
 F. Ogliaro, M. J. Bearpark, J. J. Heyd, E. N. Brothers, K. N. Kudin, 
 V. N. Staroverov, T. A. Keith, R. Kobayashi, J. Normand, 
 K. Raghavachari, A. P. Rendell, J. C. Burant, S. S. Iyengar, 
 J. Tomasi, M. Cossi, J. M. Millam, M. Klene, C. Adamo, R. Cammi, 
 J. W. Ochterski, R. L. Martin, K. Morokuma, O. Farkas, 
 J. B. Foresman, and D. J. Fox, Gaussian, Inc., Wallingford CT, 2016.
 
 ******************************************
 Gaussian 16:  ES64L-G16RevB.01 20-Dec-2017
                24-Jun-2020 
 ******************************************
 %NProcShared=16
 Will use up to   16 processors via shared memory.
 ------------------------------------------
 #n B3LYP/GEN PSEUDO=READ Opt(modredundant)
 ------------------------------------------
 1/18=120,19=15,26=3,38=1/1,3;
 2/9=110,12=2,17=6,18=5,40=1/2;
 3/5=7,11=2,16=1,17=8,25=1,30=1,71=1,74=-5/1,2,3;
 4//1;
 5/5=2,38=5/2;
 6/7=2,8=2,9=2,10=2,28=1/1;
 7//1,2,3,16;
 1/18=20,19=15,26=3/3(2);
 2/9=110/2;
 99//99;
 2/9=110/2;
 3/5=7,6=1,11=2,16=1,17=8,25=1,30=1,71=1,74=-5,82=7/1,2,3;
 4/5=5,16=3,69=1/1;
 5/5=2,38=5/2;
 7//1,2,3,16;
 1/18=20,19=15,26=3/3(-5);
 2/9=110/2;
 6/7=2,8=2,9=2,10=2,19=2,28=1/1;
 99/9=1/99;
 -----
 Title
 -----
 Symbolic Z-matrix:
 Charge =  0 Multiplicity = 1
 Si                   -1.90698  -0.04093  -0.13187 
 O                    -2.77661   1.33183  -0.36828 
 O                    -2.96472  -1.30138  -0.09409 
 O                    -0.62539  -0.3216   -1.09659 
 Zr                    1.27686  -0.27962  -1.86137 
 H                    -3.57833   1.23701  -0.89318 
 H                    -2.59505  -2.1428   -0.38501 
 O                    -1.07346   0.19403   1.32035 
 H                    -1.20745   1.04108   1.76425 
 O                     2.39055  -1.78032  -1.24235 
 H                     2.95528  -1.89372  -0.47126 
 O                     2.153     1.49362  -1.72567 
 H                     2.44639   2.05846  -2.44931 
 O                     1.05855  -0.59026  -3.77913 
 H                     1.2845   -1.21162  -4.47598 
 
 The following ModRedundant input section has been read:
 A       1       4       5 F                                                   
 

 GradGradGradGradGradGradGradGradGradGradGradGradGradGradGradGradGradGrad
 Berny optimization.
 Initialization pass.
                           ----------------------------
                           !    Initial Parameters    !
                           ! (Angstroms and Degrees)  !
 --------------------------                            --------------------------
 ! Name  Definition              Value          Derivative Info.                !
 --------------------------------------------------------------------------------
 ! R1    R(1,2)                  1.6421         estimate D2E/DX2                !
 ! R2    R(1,3)                  1.6459         estimate D2E/DX2                !
 ! R3    R(1,4)                  1.6285         estimate D2E/DX2                !
 ! R4    R(1,8)                  1.6908         estimate D2E/DX2                !
 ! R5    R(2,6)                  0.9629         estimate D2E/DX2                !
 ! R6    R(3,7)                  0.964          estimate D2E/DX2                !
 ! R7    R(4,5)                  2.0507         estimate D2E/DX2                !
 ! R8    R(5,10)                 1.9687         estimate D2E/DX2                !
 ! R9    R(5,12)                 1.9825         estimate D2E/DX2                !
 ! R10   R(5,14)                 1.955          estimate D2E/DX2                !
 ! R11   R(8,9)                  0.9657         estimate D2E/DX2                !
 ! R12   R(10,11)                0.9625         estimate D2E/DX2                !
 ! R13   R(12,13)                0.9637         estimate D2E/DX2                !
 ! R14   R(14,15)                0.9606         estimate D2E/DX2                !
 ! A1    A(2,1,3)              107.6477         estimate D2E/DX2                !
 ! A2    A(2,1,4)              118.3958         estimate D2E/DX2                !
 ! A3    A(2,1,8)              105.5776         estimate D2E/DX2                !
 ! A4    A(3,1,4)              112.7909         estimate D2E/DX2                !
 ! A5    A(3,1,8)              113.7977         estimate D2E/DX2                !
 ! A6    A(4,1,8)               98.3257         estimate D2E/DX2                !
 ! A7    A(1,2,6)              115.9167         estimate D2E/DX2                !
 ! A8    A(1,3,7)              114.5237         estimate D2E/DX2                !
 ! A9    A(1,4,5)              161.3407         Frozen                          !
 ! A10   A(4,5,10)             113.0726         estimate D2E/DX2                !
 ! A11   A(4,5,12)             113.749          estimate D2E/DX2                !
 ! A12   A(4,5,14)             105.0109         estimate D2E/DX2                !
 ! A13   A(10,5,12)            114.2235         estimate D2E/DX2                !
 ! A14   A(10,5,14)            104.5069         estimate D2E/DX2                !
 ! A15   A(12,5,14)            104.988          estimate D2E/DX2                !
 ! A16   A(1,8,9)              116.6352         estimate D2E/DX2                !
 ! A17   A(5,10,11)            132.35           estimate D2E/DX2                !
 ! A18   A(5,12,13)            127.3994         estimate D2E/DX2                !
 ! A19   A(5,14,15)            142.012          estimate D2E/DX2                !
 ! D1    D(3,1,2,6)            -31.5445         estimate D2E/DX2                !
 ! D2    D(4,1,2,6)             97.8074         estimate D2E/DX2                !
 ! D3    D(8,1,2,6)           -153.4334         estimate D2E/DX2                !
 ! D4    D(2,1,3,7)            151.7162         estimate D2E/DX2                !
 ! D5    D(4,1,3,7)             19.2636         estimate D2E/DX2                !
 ! D6    D(8,1,3,7)            -91.6497         estimate D2E/DX2                !
 ! D7    D(2,1,4,5)             83.8563         estimate D2E/DX2                !
 ! D8    D(3,1,4,5)           -149.2051         estimate D2E/DX2                !
 ! D9    D(8,1,4,5)            -28.9512         estimate D2E/DX2                !
 ! D10   D(2,1,8,9)             -0.7356         estimate D2E/DX2                !
 ! D11   D(3,1,8,9)           -118.5698         estimate D2E/DX2                !
 ! D12   D(4,1,8,9)            121.931          estimate D2E/DX2                !
 ! D13   D(1,4,5,10)            93.7044         estimate D2E/DX2                !
 ! D14   D(1,4,5,12)           -38.7228         estimate D2E/DX2                !
 ! D15   D(1,4,5,14)          -152.9596         estimate D2E/DX2                !
 ! D16   D(4,5,10,11)          -88.237          estimate D2E/DX2                !
 ! D17   D(12,5,10,11)          43.9583         estimate D2E/DX2                !
 ! D18   D(14,5,10,11)         158.1215         estimate D2E/DX2                !
 ! D19   D(4,5,12,13)         -116.9741         estimate D2E/DX2                !
 ! D20   D(10,5,12,13)         111.1555         estimate D2E/DX2                !
 ! D21   D(14,5,12,13)          -2.7236         estimate D2E/DX2                !
 ! D22   D(4,5,14,15)         -117.1597         estimate D2E/DX2                !
 ! D23   D(10,5,14,15)           2.0816         estimate D2E/DX2                !
 ! D24   D(12,5,14,15)         122.6128         estimate D2E/DX2                !
 --------------------------------------------------------------------------------
 Trust Radius=3.00D-01 FncErr=1.00D-07 GrdErr=1.00D-06 EigMax=2.50D+02 EigMin=1.00D-04
 Number of steps in this run=     67 maximum allowed number of steps=    100.
 GradGradGradGradGradGradGradGradGradGradGradGradGradGradGradGradGradGrad

                          Input orientation:                          
 ---------------------------------------------------------------------
 Center     Atomic      Atomic             Coordinates (Angstroms)
 Number     Number       Type             X           Y           Z
 ---------------------------------------------------------------------
      1         14           0       -1.906980   -0.040930   -0.131870
      2          8           0       -2.776610    1.331830   -0.368280
      3          8           0       -2.964720   -1.301380   -0.094090
      4          8           0       -0.625390   -0.321600   -1.096590
      5         40           0        1.276860   -0.279620   -1.861370
      6          1           0       -3.578330    1.237010   -0.893180
      7          1           0       -2.595050   -2.142800   -0.385010
      8          8           0       -1.073460    0.194030    1.320350
      9          1           0       -1.207450    1.041080    1.764250
     10          8           0        2.390550   -1.780320   -1.242350
     11          1           0        2.955280   -1.893720   -0.471260
     12          8           0        2.153000    1.493620   -1.725670
     13          1           0        2.446390    2.058460   -2.449310
     14          8           0        1.058550   -0.590260   -3.779130
     15          1           0        1.284500   -1.211620   -4.475980
 ---------------------------------------------------------------------
                    Distance matrix (angstroms):
                    1          2          3          4          5
     1  Si   0.000000
     2  O    1.642138   0.000000
     3  O    1.645897   2.654121   0.000000
     4  O    1.628476   2.809273   2.727167   0.000000
     5  Zr   3.631113   4.610500   4.707257   2.050660   0.000000
     6  H    2.237439   0.962946   2.731023   3.345220   5.177879
     7  H    2.226068   3.479411   0.963991   2.775370   4.543431
     8  O    1.690830   2.654577   2.795310   2.511621   3.983929
     9  H    2.292457   2.663547   3.468219   3.221816   4.589244
    10  O    4.767327   6.094999   5.497891   3.353357   1.968652
    11  H    5.214364   6.577943   5.961503   3.960277   2.711977
    12  O    4.623687   5.115637   6.055174   3.377901   1.982528
    13  H    5.360018   5.669075   6.790854   4.114653   2.679569
    14  O    4.732720   5.480582   5.501992   3.178656   1.954983
    15  H    5.516099   6.311494   6.104497   3.982473   2.775764
                    6          7          8          9         10
     6  H    0.000000
     7  H    3.556430   0.000000
     8  O    3.501699   3.268679   0.000000
     9  H    3.566706   4.084341   0.965657   0.000000
    10  O    6.697293   5.071748   4.739710   5.472252   0.000000
    11  H    7.257241   5.556586   4.878454   5.562273   0.962476
    12  O    5.797157   6.129021   4.623550   4.865897   3.317938
    13  H    6.276430   6.879538   5.484139   5.669188   4.024438
    14  O    5.759191   5.222952   5.582587   6.206858   3.102534
    15  H    6.517619   5.714371   6.413522   7.086956   3.464553
                   11         12         13         14         15
    11  H    0.000000
    12  O    3.700172   0.000000
    13  H    4.448750   0.963731   0.000000
    14  O    4.029714   3.123632   3.272650   0.000000
    15  H    4.392556   3.954342   4.018806   0.960594   0.000000
 Stoichiometry    H6O7SiZr
 Framework group  C1[X(H6O7SiZr)]
 Deg. of freedom    39
 Full point group                 C1      NOp   1
 Largest Abelian subgroup         C1      NOp   1
 Largest concise Abelian subgroup C1      NOp   1
                         Standard orientation:                         
 ---------------------------------------------------------------------
 Center     Atomic      Atomic             Coordinates (Angstroms)
 Number     Number       Type             X           Y           Z
 ---------------------------------------------------------------------
      1         14           0       -2.256573   -0.043073   -0.033430
      2          8           0       -3.002531    1.159886   -0.865928
      3          8           0       -3.098445   -1.431739   -0.301446
      4          8           0       -0.650065   -0.233293   -0.220196
      5         40           0        1.373999    0.003294    0.008706
      6          1           0       -3.436479    0.898572   -1.684873
      7          1           0       -2.570720   -2.236561   -0.246265
      8          8           0       -2.257969    0.454536    1.582518
      9          1           0       -2.655781    1.314143    1.770443
     10          8           0        2.155378   -1.251959    1.308467
     11          1           0        2.279082   -1.204704    2.261790
     12          8           0        1.934112    1.888321    0.260424
     13          1           0        2.498992    2.413274   -0.317600
     14          8           0        2.143250   -0.527738   -1.708332
     15          1           0        2.727142   -1.177553   -2.107770
 ---------------------------------------------------------------------
 Rotational constants (GHZ):           1.6477989           0.4615739           0.4548641
 General basis read from cards:  (5D, 7F)
 ======================================================================================================
                                       Pseudopotential Parameters
 ======================================================================================================
  Center     Atomic      Valence      Angular      Power
  Number     Number     Electrons     Momentum     of R      Exponent        Coefficient   SO-Coeffient
 ======================================================================================================
    1         14
                                   No pseudopotential on this center.
    2          8
                                   No pseudopotential on this center.
    3          8
                                   No pseudopotential on this center.
    4          8
                                   No pseudopotential on this center.
    5         40           12
                                      F and up 
                                                     0      645.9321873       -0.04258430    0.00000000
                                                     1      134.7547401      -20.22224090    0.00000000
                                                     2       42.3074619     -101.86951720    0.00000000
                                                     2       12.0003227      -41.61957840    0.00000000
                                                     2        4.1260454       -4.69861600    0.00000000
                                      S - F
                                                     0      117.6251862        2.79105590    0.00000000
                                                     1       22.9646089       41.94894590    0.00000000
                                                     2        4.5225298       67.72718660    0.00000000
                                      P - F
                                                     0       47.1953145        4.99111440    0.00000000
                                                     1       48.0356033       20.71931720    0.00000000
                                                     2       19.4541456      195.58677580    0.00000000
                                                     2        4.0512875       48.28771760    0.00000000
                                      D - F
                                                     0       79.9073983        3.00492260    0.00000000
                                                     1       45.8263798       25.93779890    0.00000000
                                                     2       26.9903522      125.12449340    0.00000000
                                                     2        9.6835718       70.76340220    0.00000000
                                                     2        2.7995666       15.04928220    0.00000000
    6          1
                                   No pseudopotential on this center.
    7          1
                                   No pseudopotential on this center.
    8          8
                                   No pseudopotential on this center.
    9          1
                                   No pseudopotential on this center.
   10          8
                                   No pseudopotential on this center.
   11          1
                                   No pseudopotential on this center.
   12          8
                                   No pseudopotential on this center.
   13          1
                                   No pseudopotential on this center.
   14          8
                                   No pseudopotential on this center.
   15          1
                                   No pseudopotential on this center.
 ======================================================================================================
 There are   178 symmetry adapted cartesian basis functions of A   symmetry.
 There are   168 symmetry adapted basis functions of A   symmetry.
   168 basis functions,   339 primitive gaussians,   178 cartesian basis functions
    44 alpha electrons       44 beta electrons
       nuclear repulsion energy       625.9799444921 Hartrees.
 NAtoms=   15 NActive=   15 NUniq=   15 SFac= 1.00D+00 NAtFMM=   60 NAOKFM=F Big=F
 Integral buffers will be    131072 words long.
 Raffenetti 2 integral format.
 Two-electron integral symmetry is turned on.
 One-electron integrals computed using PRISM.
   1 Symmetry operations used in ECPInt.
 ECPInt:  NShTT=    1770 NPrTT=   10201 LenC2=    1614 LenP2D=    6374.
 LDataN:  DoStor=T MaxTD1= 5 Len=  102
 NBasis=   168 RedAO= T EigKep=  1.86D-02  NBF=   168
 NBsUse=   168 1.00D-06 EigRej= -1.00D+00 NBFU=   168
 Defaulting to unpruned grid for atomic number  40.
 ExpMin= 2.43D-02 ExpMax= 1.61D+04 ExpMxC= 2.43D+03 IAcc=3 IRadAn=         5 AccDes= 0.00D+00
 Harris functional with IExCor=  402 and IRadAn=       5 diagonalized for initial guess.
 HarFok:  IExCor=  402 AccDes= 0.00D+00 IRadAn=         5 IDoV= 1 UseB2=F ITyADJ=14
 ICtDFT=  3500011 ScaDFX=  1.000000  1.000000  1.000000  1.000000
 Defaulting to unpruned grid for atomic number  40.
 FoFCou: FMM=F IPFlag=           0 FMFlag=      100000 FMFlg1=           0
         NFxFlg=           0 DoJE=T BraDBF=F KetDBF=T FulRan=T
         wScrn=  0.000000 ICntrl=       500 IOpCl=  0 I1Cent=   200000004 NGrid=           0
         NMat0=    1 NMatS0=      1 NMatT0=    0 NMatD0=    1 NMtDS0=    0 NMtDT0=    0
 Petite list used in FoFCou.
 Requested convergence on RMS density matrix=1.00D-08 within 128 cycles.
 Requested convergence on MAX density matrix=1.00D-06.
 Requested convergence on             energy=1.00D-06.
 No special actions if energy rises.
 Defaulting to unpruned grid for atomic number  40.
 Defaulting to unpruned grid for atomic number  40.
 Defaulting to unpruned grid for atomic number  40.
 Defaulting to unpruned grid for atomic number  40.
 Defaulting to unpruned grid for atomic number  40.
 Defaulting to unpruned grid for atomic number  40.
 Defaulting to unpruned grid for atomic number  40.
 Defaulting to unpruned grid for atomic number  40.
 Defaulting to unpruned grid for atomic number  40.
 Defaulting to unpruned grid for atomic number  40.
 Defaulting to unpruned grid for atomic number  40.
 Defaulting to unpruned grid for atomic number  40.
 Defaulting to unpruned grid for atomic number  40.
 Defaulting to unpruned grid for atomic number  40.
 Defaulting to unpruned grid for atomic number  40.
 Defaulting to unpruned grid for atomic number  40.
 SCF Done:  E(RB3LYP) =  -866.675074397     A.U. after   14 cycles
            NFock= 14  Conv=0.68D-08     -V/T= 2.0446

 **********************************************************************

            Population analysis using the SCF Density.

 **********************************************************************

 Orbital symmetries:
       Occupied  (A) (A) (A) (A) (A) (A) (A) (A) (A) (A) (A) (A)
                 (A) (A) (A) (A) (A) (A) (A) (A) (A) (A) (A) (A)
                 (A) (A) (A) (A) (A) (A) (A) (A) (A) (A) (A) (A)
                 (A) (A) (A) (A) (A) (A) (A) (A)
       Virtual   (A) (A) (A) (A) (A) (A) (A) (A) (A) (A) (A) (A)
                 (A) (A) (A) (A) (A) (A) (A) (A) (A) (A) (A) (A)
                 (A) (A) (A) (A) (A) (A) (A) (A) (A) (A) (A) (A)
                 (A) (A) (A) (A) (A) (A) (A) (A) (A) (A) (A) (A)
                 (A) (A) (A) (A) (A) (A) (A) (A) (A) (A) (A) (A)
                 (A) (A) (A) (A) (A) (A) (A) (A) (A) (A) (A) (A)
                 (A) (A) (A) (A) (A) (A) (A) (A) (A) (A) (A) (A)
                 (A) (A) (A) (A) (A) (A) (A) (A) (A) (A) (A) (A)
                 (A) (A) (A) (A) (A) (A) (A) (A) (A) (A) (A) (A)
                 (A) (A) (A) (A) (A) (A) (A) (A) (A) (A) (A) (A)
                 (A) (A) (A) (A)
 The electronic state is 1-A.
 Alpha  occ. eigenvalues --  -66.18341 -19.14755 -19.14601 -19.14264 -19.14196
 Alpha  occ. eigenvalues --  -19.14135 -19.11882 -19.11456  -5.32534  -3.68523
 Alpha  occ. eigenvalues --   -3.68474  -3.68420  -2.07179  -1.27871  -1.27693
 Alpha  occ. eigenvalues --   -1.27050  -1.01553  -0.98884  -0.96504  -0.96268
 Alpha  occ. eigenvalues --   -0.95671  -0.95129  -0.92160  -0.56046  -0.51162
 Alpha  occ. eigenvalues --   -0.49370  -0.49102  -0.48316  -0.47670  -0.43823
 Alpha  occ. eigenvalues --   -0.37676  -0.37063  -0.35511  -0.35287  -0.34456
 Alpha  occ. eigenvalues --   -0.33807  -0.32964  -0.32790  -0.32318  -0.31891
 Alpha  occ. eigenvalues --   -0.31623  -0.31215  -0.29725  -0.27312
 Alpha virt. eigenvalues --   -0.02952  -0.02247  -0.01376   0.00721   0.00939
 Alpha virt. eigenvalues --    0.01140   0.01447   0.02105   0.02293   0.08787
 Alpha virt. eigenvalues --    0.09582   0.10449   0.14882   0.14964   0.15258
 Alpha virt. eigenvalues --    0.16904   0.18527   0.19781   0.19975   0.22360
 Alpha virt. eigenvalues --    0.23132   0.23974   0.24702   0.25559   0.26517
 Alpha virt. eigenvalues --    0.27651   0.28490   0.33573   0.38011   0.40398
 Alpha virt. eigenvalues --    0.42235   0.57476   0.64836   0.71533   0.80119
 Alpha virt. eigenvalues --    0.80689   0.83553   0.84667   0.86042   0.87016
 Alpha virt. eigenvalues --    0.91778   0.92139   0.93423   0.94573   0.95676
 Alpha virt. eigenvalues --    0.97733   0.98924   1.00464   1.01201   1.03132
 Alpha virt. eigenvalues --    1.05251   1.06320   1.08041   1.08825   1.11825
 Alpha virt. eigenvalues --    1.14857   1.15977   1.17803   1.19491   1.20381
 Alpha virt. eigenvalues --    1.21518   1.23544   1.26311   1.36135   1.46170
 Alpha virt. eigenvalues --    1.47565   1.48017   1.49977   1.50826   1.56361
 Alpha virt. eigenvalues --    1.58174   1.58747   1.59950   1.60537   1.62575
 Alpha virt. eigenvalues --    1.63535   1.64987   1.65658   1.68010   1.70371
 Alpha virt. eigenvalues --    1.73125   1.77238   1.78884   1.79596   1.80347
 Alpha virt. eigenvalues --    1.81044   1.82361   1.83805   1.85064   1.86360
 Alpha virt. eigenvalues --    1.88200   1.93215   2.01420   2.09646   2.13624
 Alpha virt. eigenvalues --    2.35380   2.36521   2.37013   2.37210   2.38066
 Alpha virt. eigenvalues --    2.39270   2.43917   2.57807   2.59645   2.60931
 Alpha virt. eigenvalues --    2.63089   2.63654   2.63891   2.63954   2.64135
 Alpha virt. eigenvalues --    2.64535   2.65093   2.65305   2.68505   2.71616
 Alpha virt. eigenvalues --    2.77099   2.83573   3.41399   3.42476   3.43207
 Alpha virt. eigenvalues --    3.43702   3.44087   3.46884   3.95306
          Condensed to atoms (all electrons):
               1          2          3          4          5          6
     1  Si  11.468131   0.379564   0.382279   0.351029  -0.017235  -0.021789
     2  O    0.379564   7.966283  -0.019654  -0.009999   0.002060   0.302680
     3  O    0.382279  -0.019654   7.962698  -0.016528   0.000061  -0.000259
     4  O    0.351029  -0.009999  -0.016528   8.275216   0.192367  -0.000296
     5  Zr  -0.017235   0.002060   0.000061   0.192367   9.687596  -0.000599
     6  H   -0.021789   0.302680  -0.000259  -0.000296  -0.000599   0.388082
     7  H   -0.022487   0.000403   0.301676   0.001150  -0.000471  -0.000062
     8  O    0.347485  -0.020116  -0.013657  -0.037554   0.017538   0.000553
     9  H   -0.021914   0.000606  -0.000051   0.001200  -0.001443  -0.000014
    10  O   -0.000951  -0.000000   0.000000   0.000396   0.213261  -0.000000
    11  H   -0.000043  -0.000000   0.000000  -0.000073  -0.014229   0.000000
    12  O   -0.001114   0.000000   0.000000   0.000451   0.220876   0.000000
    13  H    0.000026  -0.000000  -0.000000  -0.000002  -0.018300  -0.000000
    14  O   -0.000729   0.000000   0.000000   0.000113   0.222313   0.000000
    15  H   -0.000020   0.000000  -0.000000  -0.000056  -0.016685  -0.000000
               7          8          9         10         11         12
     1  Si  -0.022487   0.347485  -0.021914  -0.000951  -0.000043  -0.001114
     2  O    0.000403  -0.020116   0.000606  -0.000000  -0.000000   0.000000
     3  O    0.301676  -0.013657  -0.000051   0.000000   0.000000   0.000000
     4  O    0.001150  -0.037554   0.001200   0.000396  -0.000073   0.000451
     5  Zr  -0.000471   0.017538  -0.001443   0.213261  -0.014229   0.220876
     6  H   -0.000062   0.000553  -0.000014  -0.000000   0.000000   0.000000
     7  H    0.388730  -0.000326   0.000053  -0.000000  -0.000000  -0.000000
     8  O   -0.000326   8.042479   0.298326  -0.000002  -0.000003  -0.000004
     9  H    0.000053   0.298326   0.401737  -0.000000   0.000000   0.000002
    10  O   -0.000000  -0.000002  -0.000000   8.185997   0.293253   0.000881
    11  H   -0.000000  -0.000003   0.000000   0.293253   0.388418  -0.000278
    12  O   -0.000000  -0.000004   0.000002   0.000881  -0.000278   8.178372
    13  H   -0.000000   0.000000  -0.000000  -0.000047   0.000000   0.294971
    14  O   -0.000000  -0.000000  -0.000000   0.000837  -0.000020   0.000589
    15  H   -0.000000  -0.000000   0.000000  -0.000595   0.000002  -0.000128
              13         14         15
     1  Si   0.000026  -0.000729  -0.000020
     2  O   -0.000000   0.000000   0.000000
     3  O   -0.000000   0.000000  -0.000000
     4  O   -0.000002   0.000113  -0.000056
     5  Zr  -0.018300   0.222313  -0.016685
     6  H   -0.000000   0.000000  -0.000000
     7  H   -0.000000  -0.000000  -0.000000
     8  O    0.000000  -0.000000  -0.000000
     9  H   -0.000000  -0.000000   0.000000
    10  O   -0.000047   0.000837  -0.000595
    11  H    0.000000  -0.000020   0.000002
    12  O    0.294971   0.000589  -0.000128
    13  H    0.388876  -0.001479  -0.000009
    14  O   -0.001479   8.160191   0.299632
    15  H   -0.000009   0.299632   0.382370
 Mulliken charges:
               1
     1  Si   1.157769
     2  O   -0.601828
     3  O   -0.596565
     4  O   -0.757414
     5  Zr   1.512891
     6  H    0.331704
     7  H    0.331334
     8  O   -0.634723
     9  H    0.321499
    10  O   -0.693030
    11  H    0.332974
    12  O   -0.694620
    13  H    0.335964
    14  O   -0.681446
    15  H    0.335490
 Sum of Mulliken charges =  -0.00000
 Mulliken charges with hydrogens summed into heavy atoms:
               1
     1  Si   1.157769
     2  O   -0.270124
     3  O   -0.265231
     4  O   -0.757414
     5  Zr   1.512891
     8  O   -0.313224
    10  O   -0.360056
    12  O   -0.358655
    14  O   -0.345955
 Electronic spatial extent (au):  <R**2>=           2312.0999
 Charge=             -0.0000 electrons
 Dipole moment (field-independent basis, Debye):
    X=              2.3983    Y=             -0.5378    Z=             -1.0929  Tot=              2.6899
 Quadrupole moment (field-independent basis, Debye-Ang):
   XX=            -69.9334   YY=            -69.4741   ZZ=            -67.2143
   XY=             -0.9579   XZ=              2.3458   YZ=              1.0364
 Traceless Quadrupole moment (field-independent basis, Debye-Ang):
   XX=             -1.0595   YY=             -0.6002   ZZ=              1.6597
   XY=             -0.9579   XZ=              2.3458   YZ=              1.0364
 Octapole moment (field-independent basis, Debye-Ang**2):
  XXX=             64.4120  YYY=             -8.3228  ZZZ=              3.9778  XYY=             12.2446
  XXY=             16.0711  XXZ=            -23.8621  XZZ=             17.7365  YZZ=             -3.3132
  YYZ=             -6.8621  XYZ=             -4.3878
 Hexadecapole moment (field-independent basis, Debye-Ang**3):
 XXXX=          -1990.8479 YYYY=           -375.6803 ZZZZ=           -333.5795 XXXY=            -55.5352
 XXXZ=              4.5009 YYYX=             54.5922 YYYZ=              4.9268 ZZZX=             54.3615
 ZZZY=             -2.2690 XXYY=           -367.4485 XXZZ=           -305.8138 YYZZ=           -113.6398
 XXYZ=             13.3450 YYXZ=            -47.3738 ZZXY=            -58.0158
 N-N= 6.259799444921D+02 E-N=-3.288631386312D+03  KE= 8.296349576182D+02
   1 Symmetry operations used in ECPInt.
 ECPInt:  NShTT=    1770 NPrTT=   10201 LenC2=    1614 LenP2D=    6374.
 LDataN:  DoStor=T MaxTD1= 6 Len=  172
 Calling FoFJK, ICntrl=      2127 FMM=F ISym2X=0 I1Cent= 0 IOpClX= 0 NMat=1 NMatS=1 NMatT=0.
 Defaulting to unpruned grid for atomic number  40.
 Defaulting to unpruned grid for atomic number  40.
 Defaulting to unpruned grid for atomic number  40.
 Defaulting to unpruned grid for atomic number  40.
 Defaulting to unpruned grid for atomic number  40.
 Defaulting to unpruned grid for atomic number  40.
 Defaulting to unpruned grid for atomic number  40.
 Defaulting to unpruned grid for atomic number  40.
 Defaulting to unpruned grid for atomic number  40.
 Defaulting to unpruned grid for atomic number  40.
 Defaulting to unpruned grid for atomic number  40.
 Defaulting to unpruned grid for atomic number  40.
 Defaulting to unpruned grid for atomic number  40.
 Defaulting to unpruned grid for atomic number  40.
 Defaulting to unpruned grid for atomic number  40.
 Defaulting to unpruned grid for atomic number  40.
 ***** Axes restored to original set *****
 -------------------------------------------------------------------
 Center     Atomic                   Forces (Hartrees/Bohr)
 Number     Number              X              Y              Z
 -------------------------------------------------------------------
      1       14           0.028151613    0.007581104    0.032397531
      2        8          -0.002232903    0.001917568   -0.005223750
      3        8          -0.000364973   -0.001950519   -0.004208148
      4        8           0.017706118   -0.003986848   -0.024842501
      5       40          -0.025595530    0.001673287   -0.004191858
      6        1          -0.000194009   -0.000002969   -0.000005132
      7        1          -0.000120824    0.000275331    0.000815295
      8        8          -0.012468365    0.000847497   -0.004720555
      9        1          -0.003762506   -0.003695639   -0.001925097
     10        8          -0.001524446    0.005456275    0.005382654
     11        1           0.001915610   -0.002396883   -0.000446276
     12        8          -0.002760642   -0.008377225    0.001745615
     13        1           0.000242127    0.001390605    0.001256944
     14        8           0.000381389    0.002110579    0.003356419
     15        1           0.000627342   -0.000842164    0.000608861
 -------------------------------------------------------------------
 Cartesian Forces:  Max     0.032397531 RMS     0.009383735

 GradGradGradGradGradGradGradGradGradGradGradGradGradGradGradGradGradGrad
 Berny optimization.
 FormGI is forming the generalized inverse of G from B-inverse, IUseBI=4.
 Internal  Forces:  Max     0.027676882 RMS     0.006441891
 Search for a local minimum.
 Step number   1 out of a maximum of   67
 All quantities printed in internal units (Hartrees-Bohrs-Radians)
 Mixed Optimization -- RFO/linear search
 Second derivative matrix not updated -- first step.
 ITU=  0
     Eigenvalues ---    0.00230   0.00230   0.00230   0.00230   0.03138
     Eigenvalues ---    0.03732   0.03782   0.03962   0.07595   0.10447
     Eigenvalues ---    0.11446   0.11649   0.12384   0.13641   0.15842
     Eigenvalues ---    0.16000   0.16000   0.16000   0.16000   0.16000
     Eigenvalues ---    0.16000   0.18952   0.19683   0.19789   0.19910
     Eigenvalues ---    0.19986   0.20440   0.21460   0.37017   0.43277
     Eigenvalues ---    0.43863   0.46083   0.54274   0.54624   0.54679
     Eigenvalues ---    0.54844   0.54944   0.553461000.000001000.00000
     Eigenvalues --- 1000.000001000.000001000.000001000.000001000.00000
     Eigenvalues --- 1000.000001000.000001000.000001000.000001000.00000
     Eigenvalues --- 1000.000001000.000001000.000001000.000001000.00000
     Eigenvalues --- 1000.000001000.00000
 RFO step:  Lambda=-1.42218580D-02 EMin= 2.30000000D-03
 Linear search not attempted -- first point.
 Iteration  1 RMS(Cart)=  0.08577207 RMS(Int)=  0.00259954
 Iteration  2 RMS(Cart)=  0.00421922 RMS(Int)=  0.00086539
 Iteration  3 RMS(Cart)=  0.00000575 RMS(Int)=  0.00086538
 Iteration  4 RMS(Cart)=  0.00000000 RMS(Int)=  0.00086538
 Iteration  1 RMS(Cart)=  0.00000000 RMS(Int)=  0.00000000
 Variable       Old X    -DE/DX   Delta X   Delta X   Delta X     New X
                                 (Linear)    (Quad)   (Total)
    R1        3.10319   0.00364   0.00000   0.00803   0.00803   3.11122
    R2        3.11029   0.00152   0.00000   0.00340   0.00340   3.11369
    R3        3.07737   0.00392   0.00000   0.00824   0.00824   3.08562
    R4        3.19520  -0.01411   0.00000  -0.03669  -0.03669   3.15851
    R5        1.81970   0.00016   0.00000   0.00029   0.00029   1.82000
    R6        1.82168  -0.00053   0.00000  -0.00095  -0.00095   1.82073
    R7        3.87519  -0.02768   0.00000  -0.16031  -0.16031   3.71488
    R8        3.72021  -0.00056   0.00000  -0.00265  -0.00265   3.71757
    R9        3.74643  -0.00716   0.00000  -0.03512  -0.03512   3.71131
   R10        3.69438  -0.00420   0.00000  -0.01923  -0.01923   3.67515
   R11        1.82483  -0.00360   0.00000  -0.00647  -0.00647   1.81836
   R12        1.81882   0.00105   0.00000   0.00186   0.00186   1.82068
   R13        1.82119  -0.00006   0.00000  -0.00010  -0.00010   1.82109
   R14        1.81526   0.00025   0.00000   0.00044   0.00044   1.81570
    A1        1.87881   0.00300   0.00000  -0.01557  -0.01780   1.86100
    A2        2.06640  -0.00603   0.00000  -0.03515  -0.03824   2.02816
    A3        1.84268  -0.00233   0.00000   0.00605   0.00620   1.84888
    A4        1.96857  -0.00914   0.00000  -0.05158  -0.05355   1.91502
    A5        1.98615  -0.00497   0.00000  -0.01424  -0.01347   1.97267
    A6        1.71611   0.02047   0.00000   0.12384   0.12438   1.84049
    A7        2.02313   0.00006   0.00000   0.00033   0.00033   2.02346
    A8        1.99882   0.00021   0.00000   0.00122   0.00122   2.00004
    A9        2.81593  -0.00561   0.00000   0.00000   0.00000   2.81593
   A10        1.97349  -0.00153   0.00000  -0.02119  -0.02298   1.95051
   A11        1.98529  -0.00222   0.00000  -0.02473  -0.02645   1.95885
   A12        1.83279   0.00369   0.00000   0.03884   0.03904   1.87182
   A13        1.99358  -0.00344   0.00000  -0.03375  -0.03518   1.95839
   A14        1.82399   0.00256   0.00000   0.02984   0.03021   1.85420
   A15        1.83239   0.00263   0.00000   0.02963   0.03006   1.86244
   A16        2.03567  -0.00491   0.00000  -0.02819  -0.02819   2.00748
   A17        2.30994   0.00508   0.00000   0.02915   0.02915   2.33910
   A18        2.22354   0.00337   0.00000   0.01935   0.01935   2.24289
   A19        2.47858  -0.00216   0.00000  -0.01238  -0.01238   2.46620
    D1       -0.55056   0.00330   0.00000   0.03328   0.03280  -0.51776
    D2        1.70706  -0.01197   0.00000  -0.08508  -0.08416   1.62290
    D3       -2.67792   0.00883   0.00000   0.05487   0.05443  -2.62348
    D4        2.64795  -0.00271   0.00000  -0.02351  -0.02288   2.62506
    D5        0.33621   0.01034   0.00000   0.07966   0.07875   0.41497
    D6       -1.59959  -0.00651   0.00000  -0.03441  -0.03412  -1.63371
    D7        1.46357   0.00629   0.00000   0.06313   0.06154   1.52510
    D8       -2.60412  -0.00399   0.00000  -0.04371  -0.04187  -2.64599
    D9       -0.50529  -0.00184   0.00000  -0.01082  -0.01106  -0.51636
   D10       -0.01284   0.00122   0.00000   0.02701   0.02551   0.01267
   D11       -2.06943   0.00178   0.00000   0.04994   0.05050  -2.01894
   D12        2.12810   0.00248   0.00000   0.04323   0.04417   2.17226
   D13        1.63545  -0.00443   0.00000  -0.04952  -0.04899   1.58646
   D14       -0.67584   0.00430   0.00000   0.04509   0.04453  -0.63131
   D15       -2.66965   0.00002   0.00000  -0.00168  -0.00164  -2.67129
   D16       -1.54003   0.00406   0.00000   0.02505   0.02439  -1.51564
   D17        0.76722  -0.00412   0.00000  -0.06558  -0.06484   0.70238
   D18        2.75974  -0.00108   0.00000  -0.02825  -0.02833   2.73141
   D19       -2.04158  -0.00409   0.00000  -0.03620  -0.03544  -2.07703
   D20        1.94003   0.00381   0.00000   0.05340   0.05259   1.99262
   D21       -0.04754   0.00082   0.00000   0.01604   0.01610  -0.03144
   D22       -2.04482  -0.00022   0.00000  -0.00092  -0.00091  -2.04573
   D23        0.03633   0.00086   0.00000   0.00603   0.00616   0.04249
   D24        2.14000  -0.00064   0.00000  -0.00476  -0.00489   2.13510
         Item               Value     Threshold  Converged?
 Maximum Force            0.027677     0.000450     NO 
 RMS     Force            0.006456     0.000300     NO 
 Maximum Displacement     0.260264     0.001800     NO 
 RMS     Displacement     0.085752     0.001200     NO 
 Predicted change in Energy=-7.717907D-03
 GradGradGradGradGradGradGradGradGradGradGradGradGradGradGradGradGradGrad

                          Input orientation:                          
 ---------------------------------------------------------------------
 Center     Atomic      Atomic             Coordinates (Angstroms)
 Number     Number       Type             X           Y           Z
 ---------------------------------------------------------------------
      1         14           0       -1.817735   -0.020914   -0.092943
      2          8           0       -2.701341    1.333815   -0.400431
      3          8           0       -2.870939   -1.287698   -0.123111
      4          8           0       -0.572566   -0.315277   -1.107370
      5         40           0        1.222895   -0.294023   -1.907588
      6          1           0       -3.479098    1.212492   -0.955352
      7          1           0       -2.483506   -2.124739   -0.401621
      8          8           0       -1.122549    0.215699    1.408505
      9          1           0       -1.345176    1.049974    1.833138
     10          8           0        2.337068   -1.770716   -1.238206
     11          1           0        2.912175   -1.881987   -0.473269
     12          8           0        2.104286    1.449788   -1.709254
     13          1           0        2.408969    2.049980   -2.398902
     14          8           0        1.007106   -0.597632   -3.816392
     15          1           0        1.237550   -1.224984   -4.506693
 ---------------------------------------------------------------------
                    Distance matrix (angstroms):
                    1          2          3          4          5
     1  Si   0.000000
     2  O    1.646389   0.000000
     3  O    1.647693   2.641590   0.000000
     4  O    1.632837   2.784053   2.682702   0.000000
     5  Zr   3.551472   4.507882   4.575065   1.965828   0.000000
     6  H    2.241688   0.963101   2.704336   3.287114   5.028427
     7  H    2.228141   3.465407   0.963488   2.724688   4.399643
     8  O    1.671411   2.648587   2.768198   2.629457   4.093580
     9  H    2.253864   2.628417   3.408750   3.332780   4.732267
    10  O    4.651432   5.977085   5.347904   3.255977   1.967251
    11  H    5.097086   6.469794   5.824105   3.872993   2.726273
    12  O    4.489729   4.982019   5.895977   3.262400   1.963941
    13  H    5.241285   5.533719   6.648064   4.018961   2.672548
    14  O    4.709183   5.399246   5.399607   3.148633   1.944807
    15  H    5.501430   6.238886   6.008278   3.957206   2.760842
                    6          7          8          9         10
     6  H    0.000000
     7  H    3.526319   0.000000
     8  O    3.483496   3.256748   0.000000
     9  H    3.515070   4.045831   0.962232   0.000000
    10  O    6.542731   4.905419   4.787470   5.563125   0.000000
    11  H    7.117343   5.401614   4.921418   5.660472   0.963460
    12  O    5.639047   5.961122   4.653586   4.960562   3.263084
    13  H    6.120013   6.734517   5.507500   5.744892   3.993758
    14  O    5.620332   5.116355   5.700569   6.337588   3.129212
    15  H    6.387494   5.613148   6.529564   7.213831   3.491385
                   11         12         13         14         15
    11  H    0.000000
    12  O    3.644320   0.000000
    13  H    4.406999   0.963679   0.000000
    14  O    4.056516   3.136202   3.314264   0.000000
    15  H    4.416392   3.966270   4.066988   0.960828   0.000000
 Stoichiometry    H6O7SiZr
 Framework group  C1[X(H6O7SiZr)]
 Deg. of freedom    39
 Full point group                 C1      NOp   1
 Largest Abelian subgroup         C1      NOp   1
 Largest concise Abelian subgroup C1      NOp   1
                         Standard orientation:                         
 ---------------------------------------------------------------------
 Center     Atomic      Atomic             Coordinates (Angstroms)
 Number     Number       Type             X           Y           Z
 ---------------------------------------------------------------------
      1         14           0       -2.199306   -0.039520   -0.007122
      2          8           0       -2.913345    0.958161   -1.105020
      3          8           0       -2.970744   -1.491268   -0.117596
      4          8           0       -0.589335   -0.257186   -0.170749
      5         40           0        1.351909    0.002917   -0.002241
      6          1           0       -3.280207    0.530922   -1.886328
      7          1           0       -2.423513   -2.253749    0.100280
      8          8           0       -2.400334    0.696131    1.480164
      9          1           0       -2.882021    1.528886    1.460496
     10          8           0        2.086928   -0.971409    1.540650
     11          1           0        2.193253   -0.763005    2.475272
     12          8           0        1.848390    1.902992    0.014662
     13          1           0        2.410643    2.381764   -0.604470
     14          8           0        2.177367   -0.776708   -1.581190
     15          1           0        2.784356   -1.473897   -1.843264
 ---------------------------------------------------------------------
 Rotational constants (GHZ):           1.6463930           0.4740580           0.4700345
 Basis read from rwf:  (5D, 7F)
 Pseudo-potential data read from rwf file.
 There are   178 symmetry adapted cartesian basis functions of A   symmetry.
 There are   168 symmetry adapted basis functions of A   symmetry.
   168 basis functions,   339 primitive gaussians,   178 cartesian basis functions
    44 alpha electrons       44 beta electrons
       nuclear repulsion energy       630.8766010762 Hartrees.
 NAtoms=   15 NActive=   15 NUniq=   15 SFac= 1.00D+00 NAtFMM=   60 NAOKFM=F Big=F
 Integral buffers will be    131072 words long.
 Raffenetti 2 integral format.
 Two-electron integral symmetry is turned on.
 One-electron integrals computed using PRISM.
   1 Symmetry operations used in ECPInt.
 ECPInt:  NShTT=    1770 NPrTT=   10201 LenC2=    1622 LenP2D=    6408.
 LDataN:  DoStor=T MaxTD1= 5 Len=  102
 NBasis=   168 RedAO= T EigKep=  1.74D-02  NBF=   168
 NBsUse=   168 1.00D-06 EigRej= -1.00D+00 NBFU=   168
 Defaulting to unpruned grid for atomic number  40.
 Initial guess from the checkpoint file:  "/localscratch/sarashs.33453151.0/Gau-24121.chk"
 B after Tr=    -0.000000    0.000000   -0.000000
         Rot=    0.996574    0.082020    0.009003   -0.005581 Ang=   9.49 deg.
 ExpMin= 2.43D-02 ExpMax= 1.61D+04 ExpMxC= 2.43D+03 IAcc=3 IRadAn=         5 AccDes= 0.00D+00
 Harris functional with IExCor=  402 and IRadAn=       5 diagonalized for initial guess.
 HarFok:  IExCor=  402 AccDes= 0.00D+00 IRadAn=         5 IDoV= 1 UseB2=F ITyADJ=14
 ICtDFT=  3500011 ScaDFX=  1.000000  1.000000  1.000000  1.000000
 Defaulting to unpruned grid for atomic number  40.
 FoFCou: FMM=F IPFlag=           0 FMFlag=      100000 FMFlg1=           0
         NFxFlg=           0 DoJE=T BraDBF=F KetDBF=T FulRan=T
         wScrn=  0.000000 ICntrl=       500 IOpCl=  0 I1Cent=   200000004 NGrid=           0
         NMat0=    1 NMatS0=      1 NMatT0=    0 NMatD0=    1 NMtDS0=    0 NMtDT0=    0
 Petite list used in FoFCou.
 Requested convergence on RMS density matrix=1.00D-08 within 128 cycles.
 Requested convergence on MAX density matrix=1.00D-06.
 Requested convergence on             energy=1.00D-06.
 No special actions if energy rises.
 Defaulting to unpruned grid for atomic number  40.
 Defaulting to unpruned grid for atomic number  40.
 Defaulting to unpruned grid for atomic number  40.
 Defaulting to unpruned grid for atomic number  40.
 Defaulting to unpruned grid for atomic number  40.
 Defaulting to unpruned grid for atomic number  40.
 Defaulting to unpruned grid for atomic number  40.
 Defaulting to unpruned grid for atomic number  40.
 Defaulting to unpruned grid for atomic number  40.
 Defaulting to unpruned grid for atomic number  40.
 Defaulting to unpruned grid for atomic number  40.
 Defaulting to unpruned grid for atomic number  40.
 Defaulting to unpruned grid for atomic number  40.
 Defaulting to unpruned grid for atomic number  40.
 Defaulting to unpruned grid for atomic number  40.
 Defaulting to unpruned grid for atomic number  40.
 SCF Done:  E(RB3LYP) =  -866.683277949     A.U. after   12 cycles
            NFock= 12  Conv=0.19D-08     -V/T= 2.0444
   1 Symmetry operations used in ECPInt.
 ECPInt:  NShTT=    1770 NPrTT=   10201 LenC2=    1622 LenP2D=    6408.
 LDataN:  DoStor=T MaxTD1= 6 Len=  172
 Calling FoFJK, ICntrl=      2127 FMM=F ISym2X=0 I1Cent= 0 IOpClX= 0 NMat=1 NMatS=1 NMatT=0.
 Defaulting to unpruned grid for atomic number  40.
 Defaulting to unpruned grid for atomic number  40.
 Defaulting to unpruned grid for atomic number  40.
 Defaulting to unpruned grid for atomic number  40.
 Defaulting to unpruned grid for atomic number  40.
 Defaulting to unpruned grid for atomic number  40.
 Defaulting to unpruned grid for atomic number  40.
 Defaulting to unpruned grid for atomic number  40.
 Defaulting to unpruned grid for atomic number  40.
 Defaulting to unpruned grid for atomic number  40.
 Defaulting to unpruned grid for atomic number  40.
 Defaulting to unpruned grid for atomic number  40.
 Defaulting to unpruned grid for atomic number  40.
 Defaulting to unpruned grid for atomic number  40.
 Defaulting to unpruned grid for atomic number  40.
 Defaulting to unpruned grid for atomic number  40.
 ***** Axes restored to original set *****
 -------------------------------------------------------------------
 Center     Atomic                   Forces (Hartrees/Bohr)
 Number     Number              X              Y              Z
 -------------------------------------------------------------------
      1       14           0.005871862    0.004329107    0.018871900
      2        8           0.000601429    0.002429010   -0.002405866
      3        8          -0.000191115   -0.002722629   -0.001644323
      4        8          -0.007448885   -0.000717980   -0.000920049
      5       40           0.005410646   -0.003377562   -0.006116714
      6        1           0.000564132   -0.000695227    0.000131787
      7        1          -0.000341631   -0.000009995    0.000464582
      8        8          -0.003542086   -0.002025239   -0.009328765
      9        1          -0.002255785   -0.000124585    0.000018597
     10        8           0.000336415    0.002037249    0.005709358
     11        1           0.000491000   -0.001542267   -0.001641268
     12        8           0.000875712    0.001689102    0.000663027
     13        1           0.000451622    0.001352974    0.001707477
     14        8          -0.001078960   -0.000430850   -0.005753004
     15        1           0.000255644   -0.000191108    0.000243261
 -------------------------------------------------------------------
 Cartesian Forces:  Max     0.018871900 RMS     0.004115655

 GradGradGradGradGradGradGradGradGradGradGradGradGradGradGradGradGradGrad
 Berny optimization.
 Using GEDIIS/GDIIS optimizer.
 FormGI is forming the generalized inverse of G from B-inverse, IUseBI=4.
 Internal  Forces:  Max     0.011079230 RMS     0.002804252
 Search for a local minimum.
 Step number   2 out of a maximum of   67
 All quantities printed in internal units (Hartrees-Bohrs-Radians)
 Mixed Optimization -- RFO/linear search
 Update second derivatives using D2CorX and points    1    2
 DE= -8.20D-03 DEPred=-7.72D-03 R= 1.06D+00
 TightC=F SS=  1.41D+00  RLast= 3.18D-01 DXNew= 5.0454D-01 9.5493D-01
 Trust test= 1.06D+00 RLast= 3.18D-01 DXMaxT set to 5.05D-01
 ITU=  1  0
 Use linear search instead of GDIIS.
     Eigenvalues ---    0.00230   0.00230   0.00230   0.00230   0.03097
     Eigenvalues ---    0.03730   0.03782   0.03962   0.06791   0.10627
     Eigenvalues ---    0.10895   0.11070   0.12248   0.12860   0.15496
     Eigenvalues ---    0.15999   0.16000   0.16000   0.16000   0.16000
     Eigenvalues ---    0.18299   0.19350   0.19667   0.19881   0.19968
     Eigenvalues ---    0.20060   0.20607   0.24459   0.36287   0.43293
     Eigenvalues ---    0.43833   0.46024   0.54326   0.54623   0.54679
     Eigenvalues ---    0.54848   0.54975   0.553461000.000001000.00000
     Eigenvalues --- 1000.000001000.000001000.000001000.000001000.00000
     Eigenvalues --- 1000.000001000.000001000.000001000.000001000.00000
     Eigenvalues --- 1000.000001000.000001000.000001000.000001000.00000
     Eigenvalues --- 1000.000001000.00000
 RFO step:  Lambda=-2.99642335D-03 EMin= 2.29940914D-03
 Quartic linear search produced a step of  0.14086.
 Iteration  1 RMS(Cart)=  0.04736597 RMS(Int)=  0.00114895
 Iteration  2 RMS(Cart)=  0.00180349 RMS(Int)=  0.00056887
 Iteration  3 RMS(Cart)=  0.00000132 RMS(Int)=  0.00056887
 Iteration  4 RMS(Cart)=  0.00000000 RMS(Int)=  0.00056887
 Iteration  1 RMS(Cart)=  0.00000000 RMS(Int)=  0.00000000
 Variable       Old X    -DE/DX   Delta X   Delta X   Delta X     New X
                                 (Linear)    (Quad)   (Total)
    R1        3.11122   0.00123   0.00113   0.00366   0.00479   3.11602
    R2        3.11369   0.00246   0.00048   0.00661   0.00709   3.12078
    R3        3.08562   0.00347   0.00116   0.00899   0.01015   3.09577
    R4        3.15851  -0.01108  -0.00517  -0.03590  -0.04107   3.11744
    R5        1.82000  -0.00044   0.00004  -0.00089  -0.00085   1.81915
    R6        1.82073  -0.00026  -0.00013  -0.00060  -0.00074   1.81999
    R7        3.71488   0.00826  -0.02258   0.04959   0.02701   3.74189
    R8        3.71757   0.00148  -0.00037   0.00823   0.00786   3.72542
    R9        3.71131   0.00354  -0.00495   0.01882   0.01387   3.72519
   R10        3.67515   0.00560  -0.00271   0.02941   0.02670   3.70185
   R11        1.81836   0.00042  -0.00091   0.00044  -0.00047   1.81788
   R12        1.82068  -0.00083   0.00026  -0.00158  -0.00131   1.81936
   R13        1.82109  -0.00024  -0.00001  -0.00049  -0.00051   1.82058
   R14        1.81570   0.00001   0.00006   0.00005   0.00011   1.81582
    A1        1.86100   0.00244  -0.00251   0.00739   0.00391   1.86492
    A2        2.02816  -0.00371  -0.00539  -0.02778  -0.03413   1.99402
    A3        1.84888   0.00005   0.00087   0.00648   0.00762   1.85650
    A4        1.91502  -0.00256  -0.00754  -0.02140  -0.02969   1.88533
    A5        1.97267  -0.00106  -0.00190  -0.00149  -0.00309   1.96958
    A6        1.84049   0.00476   0.01752   0.03726   0.05511   1.89560
    A7        2.02346  -0.00143   0.00005  -0.00988  -0.00983   2.01363
    A8        2.00004   0.00065   0.00017   0.00460   0.00478   2.00482
    A9        2.81593  -0.00249   0.00000   0.00000   0.00000   2.81593
   A10        1.95051  -0.00137  -0.00324  -0.02114  -0.02619   1.92432
   A11        1.95885  -0.00241  -0.00373  -0.02863  -0.03399   1.92486
   A12        1.87182   0.00184   0.00550   0.02558   0.03143   1.90325
   A13        1.95839  -0.00165  -0.00496  -0.02295  -0.02960   1.92879
   A14        1.85420   0.00206   0.00425   0.02852   0.03308   1.88728
   A15        1.86244   0.00218   0.00423   0.02742   0.03208   1.89452
   A16        2.00748  -0.00224  -0.00397  -0.01701  -0.02098   1.98650
   A17        2.33910   0.00368   0.00411   0.02706   0.03116   2.37026
   A18        2.24289   0.00401   0.00273   0.02881   0.03154   2.27443
   A19        2.46620  -0.00071  -0.00174  -0.00559  -0.00734   2.45886
    D1       -0.51776   0.00127   0.00462   0.01411   0.01857  -0.49919
    D2        1.62290  -0.00265  -0.01185  -0.02661  -0.03808   1.58482
    D3       -2.62348   0.00124   0.00767   0.00873   0.01617  -2.60731
    D4        2.62506  -0.00167  -0.00322  -0.01270  -0.01580   2.60926
    D5        0.41497   0.00294   0.01109   0.03046   0.04135   0.45631
    D6       -1.63371  -0.00067  -0.00481  -0.00108  -0.00580  -1.63951
    D7        1.52510   0.00097   0.00867   0.01684   0.02453   1.54963
    D8       -2.64599  -0.00047  -0.00590  -0.01012  -0.01508  -2.66107
    D9       -0.51636  -0.00031  -0.00156  -0.00148  -0.00300  -0.51936
   D10        0.01267   0.00241   0.00359   0.03926   0.04227   0.05494
   D11       -2.01894  -0.00001   0.00711   0.02713   0.03448  -1.98446
   D12        2.17226   0.00063   0.00622   0.02998   0.03654   2.20880
   D13        1.58646  -0.00270  -0.00690  -0.03452  -0.04067   1.54579
   D14       -0.63131   0.00258   0.00627   0.03681   0.04227  -0.58904
   D15       -2.67129   0.00013  -0.00023   0.00366   0.00348  -2.66781
   D16       -1.51564   0.00248   0.00344  -0.01683  -0.01410  -1.52973
   D17        0.70238  -0.00321  -0.00913  -0.09121  -0.09960   0.60278
   D18        2.73141  -0.00022  -0.00399  -0.05326  -0.05730   2.67411
   D19       -2.07703  -0.00238  -0.00499  -0.02015  -0.02424  -2.10127
   D20        1.99262   0.00279   0.00741   0.05057   0.05710   2.04972
   D21       -0.03144  -0.00012   0.00227   0.01199   0.01424  -0.01720
   D22       -2.04573  -0.00040  -0.00013  -0.00920  -0.00935  -2.05508
   D23        0.04249   0.00003   0.00087  -0.00583  -0.00494   0.03755
   D24        2.13510   0.00028  -0.00069  -0.00388  -0.00456   2.13054
         Item               Value     Threshold  Converged?
 Maximum Force            0.011079     0.000450     NO 
 RMS     Force            0.002810     0.000300     NO 
 Maximum Displacement     0.146639     0.001800     NO 
 RMS     Displacement     0.047734     0.001200     NO 
 Predicted change in Energy=-1.706478D-03
 GradGradGradGradGradGradGradGradGradGradGradGradGradGradGradGradGradGrad

                          Input orientation:                          
 ---------------------------------------------------------------------
 Center     Atomic      Atomic             Coordinates (Angstroms)
 Number     Number       Type             X           Y           Z
 ---------------------------------------------------------------------
      1         14           0       -1.795585   -0.010071   -0.057038
      2          8           0       -2.668975    1.342804   -0.411829
      3          8           0       -2.845389   -1.283982   -0.105302
      4          8           0       -0.576169   -0.318177   -1.106719
      5         40           0        1.210290   -0.313063   -1.960780
      6          1           0       -3.434570    1.202745   -0.978351
      7          1           0       -2.453170   -2.122117   -0.372230
      8          8           0       -1.151123    0.232444    1.442059
      9          1           0       -1.422774    1.058906    1.852642
     10          8           0        2.320357   -1.769104   -1.229927
     11          1           0        2.915289   -1.873854   -0.480261
     12          8           0        2.091730    1.429453   -1.691220
     13          1           0        2.408701    2.073646   -2.333640
     14          8           0        0.999857   -0.613893   -3.885006
     15          1           0        1.238672   -1.241958   -4.571888
 ---------------------------------------------------------------------
                    Distance matrix (angstroms):
                    1          2          3          4          5
     1  Si   0.000000
     2  O    1.648926   0.000000
     3  O    1.651444   2.650487   0.000000
     4  O    1.638211   2.760718   2.661761   0.000000
     5  Zr   3.570900   4.493311   4.564430   1.980122   0.000000
     6  H    2.237412   0.962652   2.700585   3.240391   4.983731
     7  H    2.234391   3.471860   0.963097   2.704959   4.383733
     8  O    1.649678   2.640772   2.750348   2.670211   4.177699
     9  H    2.220040   2.600278   3.368457   3.372078   4.832961
    10  O    4.627186   5.936892   5.308960   3.241949   1.971408
    11  H    5.083811   6.444810   5.802926   3.873353   2.745000
    12  O    4.455783   4.930382   5.852607   3.242459   1.971284
    13  H    5.215441   5.478165   6.621527   4.016915   2.696589
    14  O    4.778330   5.417744   5.433332   3.207832   1.958935
    15  H    5.577467   6.265524   6.052414   4.019256   2.771559
                    6          7          8          9         10
     6  H    0.000000
     7  H    3.519266   0.000000
     8  O    3.466122   3.245140   0.000000
     9  H    3.475994   4.016302   0.961983   0.000000
    10  O    6.481849   4.862800   4.816314   5.613457   0.000000
    11  H    7.073490   5.375282   4.966640   5.732565   0.962765
    12  O    5.576699   5.916883   4.665443   5.004798   3.239726
    13  H    6.061279   6.714861   5.506204   5.764968   3.999089
    14  O    5.604726   5.151478   5.806946   6.448875   3.182401
    15  H    6.381949   5.660522   6.637209   7.324743   3.551989
                   11         12         13         14         15
    11  H    0.000000
    12  O    3.613379   0.000000
    13  H    4.390263   0.963411   0.000000
    14  O    4.104713   3.190634   3.407998   0.000000
    15  H    4.466738   4.020248   4.167968   0.960889   0.000000
 Stoichiometry    H6O7SiZr
 Framework group  C1[X(H6O7SiZr)]
 Deg. of freedom    39
 Full point group                 C1      NOp   1
 Largest Abelian subgroup         C1      NOp   1
 Largest concise Abelian subgroup C1      NOp   1
                         Standard orientation:                         
 ---------------------------------------------------------------------
 Center     Atomic      Atomic             Coordinates (Angstroms)
 Number     Number       Type             X           Y           Z
 ---------------------------------------------------------------------
      1         14           0       -2.205583   -0.034096    0.009955
      2          8           0       -2.879224    0.633558   -1.338897
      3          8           0       -2.942668   -1.493779    0.240816
      4          8           0       -0.591857   -0.293227   -0.101729
      5         40           0        1.365150   -0.005872   -0.009888
      6          1           0       -3.208433    0.005280   -1.989733
      7          1           0       -2.391444   -2.164356    0.657990
      8          8           0       -2.484426    1.026358    1.242482
      9          1           0       -3.009600    1.790497    0.986171
     10          8           0        2.047432   -0.517494    1.767521
     11          1           0        2.158701   -0.078099    2.616913
     12          8           0        1.798524    1.877128   -0.400349
     13          1           0        2.346317    2.259671   -1.094426
     14          8           0        2.240942   -1.137250   -1.347946
     15          1           0        2.866846   -1.863148   -1.415936
 ---------------------------------------------------------------------
 Rotational constants (GHZ):           1.6307568           0.4711530           0.4682163
 Basis read from rwf:  (5D, 7F)
 Pseudo-potential data read from rwf file.
 There are   178 symmetry adapted cartesian basis functions of A   symmetry.
 There are   168 symmetry adapted basis functions of A   symmetry.
   168 basis functions,   339 primitive gaussians,   178 cartesian basis functions
    44 alpha electrons       44 beta electrons
       nuclear repulsion energy       629.8359674619 Hartrees.
 NAtoms=   15 NActive=   15 NUniq=   15 SFac= 1.00D+00 NAtFMM=   60 NAOKFM=F Big=F
 Integral buffers will be    131072 words long.
 Raffenetti 2 integral format.
 Two-electron integral symmetry is turned on.
 One-electron integrals computed using PRISM.
   1 Symmetry operations used in ECPInt.
 ECPInt:  NShTT=    1770 NPrTT=   10201 LenC2=    1621 LenP2D=    6401.
 LDataN:  DoStor=T MaxTD1= 5 Len=  102
 NBasis=   168 RedAO= T EigKep=  1.77D-02  NBF=   168
 NBsUse=   168 1.00D-06 EigRej= -1.00D+00 NBFU=   168
 Defaulting to unpruned grid for atomic number  40.
 Initial guess from the checkpoint file:  "/localscratch/sarashs.33453151.0/Gau-24121.chk"
 B after Tr=     0.000000    0.000000    0.000000
         Rot=    0.992246    0.124118    0.005225   -0.004013 Ang=  14.28 deg.
 ExpMin= 2.43D-02 ExpMax= 1.61D+04 ExpMxC= 2.43D+03 IAcc=3 IRadAn=         5 AccDes= 0.00D+00
 Harris functional with IExCor=  402 and IRadAn=       5 diagonalized for initial guess.
 HarFok:  IExCor=  402 AccDes= 0.00D+00 IRadAn=         5 IDoV= 1 UseB2=F ITyADJ=14
 ICtDFT=  3500011 ScaDFX=  1.000000  1.000000  1.000000  1.000000
 Defaulting to unpruned grid for atomic number  40.
 FoFCou: FMM=F IPFlag=           0 FMFlag=      100000 FMFlg1=           0
         NFxFlg=           0 DoJE=T BraDBF=F KetDBF=T FulRan=T
         wScrn=  0.000000 ICntrl=       500 IOpCl=  0 I1Cent=   200000004 NGrid=           0
         NMat0=    1 NMatS0=      1 NMatT0=    0 NMatD0=    1 NMtDS0=    0 NMtDT0=    0
 Petite list used in FoFCou.
 Requested convergence on RMS density matrix=1.00D-08 within 128 cycles.
 Requested convergence on MAX density matrix=1.00D-06.
 Requested convergence on             energy=1.00D-06.
 No special actions if energy rises.
 Defaulting to unpruned grid for atomic number  40.
 Defaulting to unpruned grid for atomic number  40.
 Defaulting to unpruned grid for atomic number  40.
 Defaulting to unpruned grid for atomic number  40.
 Defaulting to unpruned grid for atomic number  40.
 Defaulting to unpruned grid for atomic number  40.
 Defaulting to unpruned grid for atomic number  40.
 Defaulting to unpruned grid for atomic number  40.
 Defaulting to unpruned grid for atomic number  40.
 Defaulting to unpruned grid for atomic number  40.
 Defaulting to unpruned grid for atomic number  40.
 Defaulting to unpruned grid for atomic number  40.
 Defaulting to unpruned grid for atomic number  40.
 Defaulting to unpruned grid for atomic number  40.
 Defaulting to unpruned grid for atomic number  40.
 Defaulting to unpruned grid for atomic number  40.
 SCF Done:  E(RB3LYP) =  -866.685182363     A.U. after   11 cycles
            NFock= 11  Conv=0.72D-08     -V/T= 2.0445
   1 Symmetry operations used in ECPInt.
 ECPInt:  NShTT=    1770 NPrTT=   10201 LenC2=    1621 LenP2D=    6401.
 LDataN:  DoStor=T MaxTD1= 6 Len=  172
 Calling FoFJK, ICntrl=      2127 FMM=F ISym2X=0 I1Cent= 0 IOpClX= 0 NMat=1 NMatS=1 NMatT=0.
 Defaulting to unpruned grid for atomic number  40.
 Defaulting to unpruned grid for atomic number  40.
 Defaulting to unpruned grid for atomic number  40.
 Defaulting to unpruned grid for atomic number  40.
 Defaulting to unpruned grid for atomic number  40.
 Defaulting to unpruned grid for atomic number  40.
 Defaulting to unpruned grid for atomic number  40.
 Defaulting to unpruned grid for atomic number  40.
 Defaulting to unpruned grid for atomic number  40.
 Defaulting to unpruned grid for atomic number  40.
 Defaulting to unpruned grid for atomic number  40.
 Defaulting to unpruned grid for atomic number  40.
 Defaulting to unpruned grid for atomic number  40.
 Defaulting to unpruned grid for atomic number  40.
 Defaulting to unpruned grid for atomic number  40.
 Defaulting to unpruned grid for atomic number  40.
 ***** Axes restored to original set *****
 -------------------------------------------------------------------
 Center     Atomic                   Forces (Hartrees/Bohr)
 Number     Number              X              Y              Z
 -------------------------------------------------------------------
      1       14          -0.000960937   -0.001070139    0.000462704
      2        8           0.000564361    0.001888659    0.000092964
      3        8          -0.000899255   -0.001106384    0.000245203
      4        8           0.000613049    0.000055455   -0.000073012
      5       40           0.003053910   -0.001754354   -0.001508614
      6        1           0.000171305   -0.000601761   -0.000194711
      7        1           0.000045962    0.000324657    0.000143642
      8        8           0.001763056    0.000069830   -0.001672936
      9        1          -0.001109891    0.000403136    0.001253687
     10        8          -0.002220697    0.004007867    0.001325589
     11        1           0.000214154   -0.000742338   -0.001088340
     12        8          -0.001327404   -0.002735911   -0.001250300
     13        1           0.000333568    0.000948834    0.001382139
     14        8          -0.000453768    0.000517800    0.000752395
     15        1           0.000212587   -0.000205352    0.000129590
 -------------------------------------------------------------------
 Cartesian Forces:  Max     0.004007867 RMS     0.001266485

 GradGradGradGradGradGradGradGradGradGradGradGradGradGradGradGradGradGrad
 Berny optimization.
 Using GEDIIS/GDIIS optimizer.
 FormGI is forming the generalized inverse of G from B-inverse, IUseBI=4.
 Internal  Forces:  Max     0.003453557 RMS     0.000986479
 Search for a local minimum.
 Step number   3 out of a maximum of   67
 All quantities printed in internal units (Hartrees-Bohrs-Radians)
 Mixed Optimization -- En-DIIS/RFO-DIIS
 Update second derivatives using D2CorX and points    1    2    3
 DE= -1.90D-03 DEPred=-1.71D-03 R= 1.12D+00
 TightC=F SS=  1.41D+00  RLast= 2.18D-01 DXNew= 8.4853D-01 6.5296D-01
 Trust test= 1.12D+00 RLast= 2.18D-01 DXMaxT set to 6.53D-01
 ITU=  1  1  0
 Use linear search instead of GDIIS.
     Eigenvalues ---    0.00229   0.00230   0.00230   0.00230   0.02872
     Eigenvalues ---    0.03729   0.03781   0.03962   0.05762   0.10327
     Eigenvalues ---    0.10484   0.11880   0.12127   0.12851   0.15126
     Eigenvalues ---    0.15999   0.16000   0.16000   0.16000   0.16191
     Eigenvalues ---    0.18451   0.19369   0.19757   0.19994   0.20087
     Eigenvalues ---    0.20381   0.22048   0.24761   0.37098   0.43218
     Eigenvalues ---    0.43823   0.45997   0.54400   0.54623   0.54679
     Eigenvalues ---    0.54851   0.54974   0.553461000.000001000.00000
     Eigenvalues --- 1000.000001000.000001000.000001000.000001000.00000
     Eigenvalues --- 1000.000001000.000001000.000001000.000001000.00000
     Eigenvalues --- 1000.000001000.000001000.000001000.000001000.00000
     Eigenvalues --- 1000.000001000.00000
 RFO step:  Lambda=-4.90736926D-04 EMin= 2.28689264D-03
 Quartic linear search produced a step of  0.17581.
 Iteration  1 RMS(Cart)=  0.02658918 RMS(Int)=  0.00066200
 Iteration  2 RMS(Cart)=  0.00086631 RMS(Int)=  0.00017928
 Iteration  3 RMS(Cart)=  0.00000093 RMS(Int)=  0.00017928
 Iteration  1 RMS(Cart)=  0.00000000 RMS(Int)=  0.00000000
 Variable       Old X    -DE/DX   Delta X   Delta X   Delta X     New X
                                 (Linear)    (Quad)   (Total)
    R1        3.11602   0.00069   0.00084   0.00210   0.00295   3.11897
    R2        3.12078   0.00113   0.00125   0.00308   0.00432   3.12510
    R3        3.09577   0.00051   0.00179   0.00145   0.00324   3.09901
    R4        3.11744  -0.00006  -0.00722  -0.00091  -0.00813   3.10931
    R5        1.81915   0.00007  -0.00015   0.00017   0.00002   1.81917
    R6        1.81999  -0.00030  -0.00013  -0.00068  -0.00081   1.81918
    R7        3.74189  -0.00006   0.00475  -0.00804  -0.00329   3.73860
    R8        3.72542  -0.00345   0.00138  -0.02091  -0.01953   3.70589
    R9        3.72519  -0.00201   0.00244  -0.01431  -0.01187   3.71332
   R10        3.70185  -0.00089   0.00469  -0.00660  -0.00191   3.69995
   R11        1.81788   0.00119  -0.00008   0.00230   0.00222   1.82010
   R12        1.81936  -0.00063  -0.00023  -0.00124  -0.00147   1.81789
   R13        1.82058  -0.00018  -0.00009  -0.00038  -0.00046   1.82012
   R14        1.81582   0.00009   0.00002   0.00022   0.00024   1.81605
    A1        1.86492   0.00064   0.00069   0.00556   0.00613   1.87105
    A2        1.99402  -0.00066  -0.00600  -0.00621  -0.01230   1.98173
    A3        1.85650  -0.00000   0.00134  -0.00154  -0.00015   1.85635
    A4        1.88533   0.00074  -0.00522   0.00407  -0.00123   1.88410
    A5        1.96958   0.00002  -0.00054   0.00092   0.00040   1.96997
    A6        1.89560  -0.00075   0.00969  -0.00287   0.00686   1.90245
    A7        2.01363  -0.00115  -0.00173  -0.00817  -0.00989   2.00374
    A8        2.00482  -0.00031   0.00084  -0.00236  -0.00152   2.00329
    A9        2.81593  -0.00201   0.00000   0.00000   0.00000   2.81593
   A10        1.92432  -0.00051  -0.00460  -0.00841  -0.01365   1.91067
   A11        1.92486  -0.00091  -0.00598  -0.01158  -0.01812   1.90674
   A12        1.90325   0.00033   0.00553   0.00687   0.01254   1.91579
   A13        1.92879  -0.00080  -0.00520  -0.00950  -0.01535   1.91344
   A14        1.88728   0.00097   0.00582   0.01221   0.01813   1.90540
   A15        1.89452   0.00100   0.00564   0.01146   0.01725   1.91177
   A16        1.98650   0.00056  -0.00369   0.00342  -0.00026   1.98623
   A17        2.37026   0.00188   0.00548   0.01427   0.01975   2.39001
   A18        2.27443   0.00309   0.00554   0.02267   0.02822   2.30265
   A19        2.45886  -0.00055  -0.00129  -0.00440  -0.00569   2.45317
    D1       -0.49919  -0.00029   0.00326  -0.00331  -0.00005  -0.49924
    D2        1.58482   0.00068  -0.00669   0.00187  -0.00480   1.58002
    D3       -2.60731  -0.00065   0.00284  -0.00648  -0.00366  -2.61097
    D4        2.60926  -0.00009  -0.00278   0.00001  -0.00277   2.60649
    D5        0.45631  -0.00010   0.00727   0.00184   0.00910   0.46541
    D6       -1.63951   0.00032  -0.00102   0.00211   0.00111  -1.63841
    D7        1.54963  -0.00059   0.00431  -0.00382   0.00033   1.54997
    D8       -2.66107   0.00032  -0.00265   0.00216  -0.00036  -2.66144
    D9       -0.51936   0.00035  -0.00053   0.00402   0.00352  -0.51584
   D10        0.05494   0.00133   0.00743   0.02958   0.03695   0.09189
   D11       -1.98446   0.00055   0.00606   0.02329   0.02938  -1.95508
   D12        2.20880   0.00011   0.00642   0.01955   0.02601   2.23481
   D13        1.54579  -0.00100  -0.00715  -0.00379  -0.01065   1.53514
   D14       -0.58904   0.00097   0.00743   0.02158   0.02871  -0.56033
   D15       -2.66781   0.00009   0.00061   0.01030   0.01093  -2.65688
   D16       -1.52973   0.00068  -0.00248  -0.06786  -0.07060  -1.60033
   D17        0.60278  -0.00136  -0.01751  -0.09452  -0.11175   0.49103
   D18        2.67411  -0.00002  -0.01007  -0.07870  -0.08879   2.58532
   D19       -2.10127  -0.00069  -0.00426   0.01088   0.00696  -2.09431
   D20        2.04972   0.00111   0.01004   0.03568   0.04538   2.09511
   D21       -0.01720  -0.00021   0.00250   0.01941   0.02190   0.00470
   D22       -2.05508  -0.00017  -0.00164  -0.00828  -0.00994  -2.06502
   D23        0.03755  -0.00003  -0.00087  -0.00728  -0.00819   0.02936
   D24        2.13054   0.00014  -0.00080  -0.00511  -0.00586   2.12468
         Item               Value     Threshold  Converged?
 Maximum Force            0.003454     0.000450     NO 
 RMS     Force            0.000958     0.000300     NO 
 Maximum Displacement     0.114609     0.001800     NO 
 RMS     Displacement     0.027015     0.001200     NO 
 Predicted change in Energy=-3.004901D-04
 GradGradGradGradGradGradGradGradGradGradGradGradGradGradGradGradGradGrad

                          Input orientation:                          
 ---------------------------------------------------------------------
 Center     Atomic      Atomic             Coordinates (Angstroms)
 Number     Number       Type             X           Y           Z
 ---------------------------------------------------------------------
      1         14           0       -1.788608   -0.008204   -0.054527
      2          8           0       -2.653594    1.346976   -0.427876
      3          8           0       -2.840143   -1.284143   -0.087468
      4          8           0       -0.576926   -0.324367   -1.113403
      5         40           0        1.200773   -0.326071   -1.981602
      6          1           0       -3.416811    1.195554   -0.994706
      7          1           0       -2.447145   -2.124334   -0.345074
      8          8           0       -1.143107    0.250162    1.436724
      9          1           0       -1.434544    1.070019    1.849726
     10          8           0        2.296789   -1.765209   -1.224344
     11          1           0        2.928749   -1.863536   -0.505753
     12          8           0        2.076248    1.405045   -1.668517
     13          1           0        2.394185    2.084173   -2.272991
     14          8           0        0.997111   -0.618068   -3.906891
     15          1           0        1.244164   -1.244215   -4.592787
 ---------------------------------------------------------------------
                    Distance matrix (angstroms):
                    1          2          3          4          5
     1  Si   0.000000
     2  O    1.650486   0.000000
     3  O    1.653732   2.659598   0.000000
     4  O    1.639925   2.752433   2.663807   0.000000
     5  Zr   3.570863   4.479877   4.564499   1.978380   0.000000
     6  H    2.232491   0.962665   2.702688   3.223228   4.960987
     7  H    2.235194   3.478429   0.962668   2.707015   4.383980
     8  O    1.645374   2.638429   2.749034   2.674658   4.184588
     9  H    2.216778   2.598126   3.357157   3.385256   4.855207
    10  O    4.598479   5.901385   5.283180   3.216608   1.961073
    11  H    5.089137   6.440187   5.812983   3.876601   2.743689
    12  O    4.420335   4.890192   5.822573   3.215331   1.965004
    13  H    5.176426   5.424756   6.596988   3.996649   2.705256
    14  O    4.793003   5.412263   5.454922   3.219849   1.957927
    15  H    5.596538   6.265243   6.081205   4.033435   2.768241
                    6          7          8          9         10
     6  H    0.000000
     7  H    3.519081   0.000000
     8  O    3.460542   3.242460   0.000000
     9  H    3.469284   4.005795   0.963157   0.000000
    10  O    6.439260   4.838078   4.793316   5.604575   0.000000
    11  H    7.061390   5.384614   4.982062   5.761280   0.961984
    12  O    5.538195   5.888048   4.619581   4.981560   3.208806
    13  H    6.015922   6.698273   5.444081   5.717033   3.990850
    14  O    5.590416   5.178637   5.821390   6.473115   3.193925
    15  H    6.373645   5.695914   6.654865   7.350995   3.567333
                   11         12         13         14         15
    11  H    0.000000
    12  O    3.572451   0.000000
    13  H    4.358130   0.963165   0.000000
    14  O    4.104894   3.204347   3.453049   0.000000
    15  H    4.463769   4.032654   4.216891   0.961014   0.000000
 Stoichiometry    H6O7SiZr
 Framework group  C1[X(H6O7SiZr)]
 Deg. of freedom    39
 Full point group                 C1      NOp   1
 Largest Abelian subgroup         C1      NOp   1
 Largest concise Abelian subgroup C1      NOp   1
                         Standard orientation:                         
 ---------------------------------------------------------------------
 Center     Atomic      Atomic             Coordinates (Angstroms)
 Number     Number       Type             X           Y           Z
 ---------------------------------------------------------------------
      1         14           0       -2.202478   -0.034664    0.015034
      2          8           0       -2.859429    0.428467   -1.426503
      3          8           0       -2.939573   -1.447517    0.457036
      4          8           0       -0.587342   -0.308880   -0.059086
[...]
 ! R10   R(5,14)                 1.9613         -DE/DX =    0.0                 !
 ! R11   R(8,9)                  0.9634         -DE/DX =    0.0                 !
 ! R12   R(10,11)                0.9612         -DE/DX =    0.0                 !
 ! R13   R(12,13)                0.9602         -DE/DX =    0.0                 !
 ! R14   R(14,15)                0.961          -DE/DX =    0.0                 !
 ! A1    A(2,1,3)              105.4984         -DE/DX =    0.0                 !
 ! A2    A(2,1,4)              114.5444         -DE/DX =    0.0                 !
 ! A3    A(2,1,8)              107.3973         -DE/DX =    0.0                 !
 ! A4    A(3,1,4)              109.3414         -DE/DX =    0.0                 !
 ! A5    A(3,1,8)              114.0639         -DE/DX =    0.0                 !
 ! A6    A(4,1,8)              106.2003         -DE/DX =    0.0                 !
 ! A7    A(1,2,6)              114.197          -DE/DX =    0.0                 !
 ! A8    A(1,3,7)              114.3313         -DE/DX =    0.0                 !
 ! A9    A(1,4,5)              161.3407         -DE/DX =   -0.0013              !
 ! A10   A(4,5,10)             109.3503         -DE/DX =    0.0                 !
 ! A11   A(4,5,12)             110.7147         -DE/DX =    0.0                 !
 ! A12   A(4,5,14)             107.9513         -DE/DX =    0.0                 !
 ! A13   A(10,5,12)            109.3975         -DE/DX =    0.0                 !
 ! A14   A(10,5,14)            109.4796         -DE/DX =    0.0                 !
 ! A15   A(12,5,14)            109.9223         -DE/DX =    0.0                 !
 ! A16   A(1,8,9)              114.6017         -DE/DX =    0.0                 !
 ! A17   A(5,10,11)            139.5421         -DE/DX =    0.0                 !
 ! A18   A(5,12,13)            144.859          -DE/DX =    0.0                 !
 ! A19   A(5,14,15)            139.7364         -DE/DX =    0.0                 !
 ! D1    D(3,1,2,6)            -32.4816         -DE/DX =    0.0                 !
 ! D2    D(4,1,2,6)             87.8142         -DE/DX =    0.0                 !
 ! D3    D(8,1,2,6)           -154.508          -DE/DX =    0.0                 !
 ! D4    D(2,1,3,7)            158.406          -DE/DX =    0.0                 !
 ! D5    D(4,1,3,7)             34.7512         -DE/DX =    0.0                 !
 ! D6    D(8,1,3,7)            -83.9717         -DE/DX =    0.0                 !
 ! D7    D(2,1,4,5)             79.8412         -DE/DX =    0.0                 !
 ! D8    D(3,1,4,5)           -162.0196         -DE/DX =    0.0                 !
 ! D9    D(8,1,4,5)            -38.5158         -DE/DX =    0.0                 !
 ! D10   D(2,1,8,9)             42.4582         -DE/DX =    0.0                 !
 ! D11   D(3,1,8,9)            -74.0673         -DE/DX =    0.0                 !
 ! D12   D(4,1,8,9)            165.438          -DE/DX =    0.0                 !
 ! D13   D(1,4,5,10)           101.6088         -DE/DX =    0.0                 !
 ! D14   D(1,4,5,12)           -18.9976         -DE/DX =    0.0                 !
 ! D15   D(1,4,5,14)          -139.3592         -DE/DX =    0.0                 !
 ! D16   D(4,5,10,11)         -113.0562         -DE/DX =    0.0                 !
 ! D17   D(12,5,10,11)           8.3504         -DE/DX =    0.0                 !
 ! D18   D(14,5,10,11)         128.8632         -DE/DX =    0.0                 !
 ! D19   D(4,5,12,13)         -101.956          -DE/DX =    0.0                 !
 ! D20   D(10,5,12,13)         137.4657         -DE/DX =    0.0                 !
 ! D21   D(14,5,12,13)          17.2232         -DE/DX =    0.0                 !
 ! D22   D(4,5,14,15)         -123.6975         -DE/DX =    0.0                 !
 ! D23   D(10,5,14,15)          -4.7477         -DE/DX =    0.0                 !
 ! D24   D(12,5,14,15)         115.445          -DE/DX =    0.0                 !
 --------------------------------------------------------------------------------
 GradGradGradGradGradGradGradGradGradGradGradGradGradGradGradGradGradGrad

                          Input orientation:                          
 ---------------------------------------------------------------------
 Center     Atomic      Atomic             Coordinates (Angstroms)
 Number     Number       Type             X           Y           Z
 ---------------------------------------------------------------------
      1         14           0       -1.779459    0.046925   -0.088142
      2          8           0       -2.651846    1.364037   -0.565453
      3          8           0       -2.863566   -1.204447   -0.029140
      4          8           0       -0.548578   -0.350082   -1.086612
      5         40           0        1.222307   -0.349477   -1.976444
      6          1           0       -3.379606    1.160261   -1.163042
      7          1           0       -2.463715   -2.079140   -0.087039
      8          8           0       -1.092895    0.410953    1.366383
      9          1           0       -1.675336    0.870361    1.981041
     10          8           0        2.313115   -1.809064   -1.253323
     11          1           0        3.106903   -1.937206   -0.726685
     12          8           0        2.139945    1.350588   -1.687928
     13          1           0        2.371942    2.194579   -2.082788
     14          8           0        0.934773   -0.636521   -3.895243
     15          1           0        1.203155   -1.237987   -4.595075
 ---------------------------------------------------------------------
                    Distance matrix (angstroms):
                    1          2          3          4          5
     1  Si   0.000000
     2  O    1.650354   0.000000
     3  O    1.656714   2.632407   0.000000
     4  O    1.633900   2.762888   2.684652   0.000000
     5  Zr   3.568392   4.464984   4.606226   1.981876   0.000000
     6  H    2.226072   0.963469   2.672803   3.209626   4.911062
     7  H    2.233463   3.481342   0.963494   2.767045   4.488690
     8  O    1.649099   2.659077   2.773495   2.625384   4.136775
     9  H    2.229441   2.771628   3.123707   3.488490   5.054307
    10  O    4.642360   5.932333   5.353710   3.216474   1.960398
    11  H    5.312349   6.639834   6.055577   4.001381   2.763057
    12  O    4.429512   4.921523   5.857892   3.237593   1.953336
    13  H    5.081846   5.313243   6.571255   3.999637   2.793777
    14  O    4.725270   5.287113   5.449465   3.189167   1.961342
    15  H    5.555127   6.153813   6.114500   4.020728   2.765329
                    6          7          8          9         10
     6  H    0.000000
     7  H    3.534170   0.000000
     8  O    3.491203   3.192514   0.000000
     9  H    3.588013   3.687554   0.963378   0.000000
    10  O    6.421223   4.924557   4.836552   5.792078   0.000000
    11  H    7.201354   5.609017   5.247198   6.171225   0.961180
    12  O    5.547717   5.959828   4.545655   5.314914   3.194099
    13  H    5.915745   6.755091   5.204152   5.886316   4.089086
    14  O    5.413613   5.304082   5.735272   6.604096   3.202254
    15  H    6.207426   5.871615   6.597714   7.481721   3.567275
                   11         12         13         14         15
    11  H    0.000000
    12  O    3.559295   0.000000
    13  H    4.410309   0.960239   0.000000
    14  O    4.055822   3.205196   3.655896   0.000000
    15  H    4.367792   4.003723   4.411366   0.961017   0.000000
 Stoichiometry    H6O7SiZr
 Framework group  C1[X(H6O7SiZr)]
 Deg. of freedom    39
 Full point group                 C1      NOp   1
 Largest Abelian subgroup         C1      NOp   1
 Largest concise Abelian subgroup C1      NOp   1
                         Standard orientation:                         
 ---------------------------------------------------------------------
 Center     Atomic      Atomic             Coordinates (Angstroms)
 Number     Number       Type             X           Y           Z
 ---------------------------------------------------------------------
      1         14           0       -2.198697   -0.018729    0.022296
      2          8           0       -2.839241    0.060685   -1.496607
      3          8           0       -2.995637   -1.261268    0.774417
      4          8           0       -0.590164   -0.302076    0.066596
      5         40           0        1.369565   -0.016179   -0.007942
      6          1           0       -3.115003   -0.790532   -1.853897
      7          1           0       -2.524816   -1.637511    1.526142
      8          8           0       -2.426344    1.452824    0.730983
      9          1           0       -3.294204    1.841901    0.577569
     10          8           0        2.082061    0.078284    1.815951
     11          1           0        2.489947    0.714613    2.409737
     12          8           0        1.790763    1.639185   -0.955510
     13          1           0        2.093817    2.012981   -1.786470
     14          8           0        2.168146   -1.543696   -0.943795
     15          1           0        2.832756   -2.223592   -0.803834
 ---------------------------------------------------------------------
 Rotational constants (GHZ):           1.6313064           0.4730435           0.4700683

 **********************************************************************

            Population analysis using the SCF Density.

 **********************************************************************

 Orbital symmetries:
       Occupied  (A) (A) (A) (A) (A) (A) (A) (A) (A) (A) (A) (A)
                 (A) (A) (A) (A) (A) (A) (A) (A) (A) (A) (A) (A)
                 (A) (A) (A) (A) (A) (A) (A) (A) (A) (A) (A) (A)
                 (A) (A) (A) (A) (A) (A) (A) (A)
       Virtual   (A) (A) (A) (A) (A) (A) (A) (A) (A) (A) (A) (A)
                 (A) (A) (A) (A) (A) (A) (A) (A) (A) (A) (A) (A)
                 (A) (A) (A) (A) (A) (A) (A) (A) (A) (A) (A) (A)
                 (A) (A) (A) (A) (A) (A) (A) (A) (A) (A) (A) (A)
                 (A) (A) (A) (A) (A) (A) (A) (A) (A) (A) (A) (A)
                 (A) (A) (A) (A) (A) (A) (A) (A) (A) (A) (A) (A)
                 (A) (A) (A) (A) (A) (A) (A) (A) (A) (A) (A) (A)
                 (A) (A) (A) (A) (A) (A) (A) (A) (A) (A) (A) (A)
                 (A) (A) (A) (A) (A) (A) (A) (A) (A) (A) (A) (A)
                 (A) (A) (A) (A) (A) (A) (A) (A) (A) (A) (A) (A)
                 (A) (A) (A) (A)
 The electronic state is 1-A.
 Alpha  occ. eigenvalues --  -66.18331 -19.14017 -19.13963 -19.13854 -19.13585
 Alpha  occ. eigenvalues --  -19.13506 -19.13287 -19.12443  -5.32587  -3.68550
 Alpha  occ. eigenvalues --   -3.68524  -3.68494  -2.06137  -1.26875  -1.26800
 Alpha  occ. eigenvalues --   -1.26476  -1.01453  -0.98255  -0.98048  -0.95888
 Alpha  occ. eigenvalues --   -0.94867  -0.94797  -0.92848  -0.55923  -0.50800
 Alpha  occ. eigenvalues --   -0.50133  -0.48566  -0.48226  -0.48097  -0.44366
 Alpha  occ. eigenvalues --   -0.38269  -0.36591  -0.35969  -0.35048  -0.34691
 Alpha  occ. eigenvalues --   -0.33309  -0.33145  -0.32790  -0.31985  -0.31678
 Alpha  occ. eigenvalues --   -0.31062  -0.30835  -0.29855  -0.29219
 Alpha virt. eigenvalues --   -0.01261  -0.00769  -0.00544   0.01054   0.01524
 Alpha virt. eigenvalues --    0.01641   0.02218   0.02582   0.02827   0.08930
 Alpha virt. eigenvalues --    0.09961   0.10297   0.15214   0.15787   0.15926
 Alpha virt. eigenvalues --    0.17743   0.18754   0.19245   0.20907   0.23221
 Alpha virt. eigenvalues --    0.23587   0.24352   0.25170   0.26016   0.26682
 Alpha virt. eigenvalues --    0.27133   0.28505   0.34392   0.38389   0.39872
 Alpha virt. eigenvalues --    0.41502   0.57302   0.64032   0.71490   0.79715
 Alpha virt. eigenvalues --    0.80884   0.82773   0.85590   0.85960   0.86872
 Alpha virt. eigenvalues --    0.91739   0.93019   0.93502   0.95011   0.96234
 Alpha virt. eigenvalues --    0.97398   0.98226   1.00638   1.02153   1.04181
 Alpha virt. eigenvalues --    1.05622   1.06415   1.08161   1.08749   1.12329
 Alpha virt. eigenvalues --    1.16059   1.17325   1.19037   1.20487   1.20970
 Alpha virt. eigenvalues --    1.21940   1.24092   1.25410   1.37862   1.46685
 Alpha virt. eigenvalues --    1.47562   1.48174   1.50913   1.52012   1.56098
 Alpha virt. eigenvalues --    1.58699   1.59291   1.59816   1.62002   1.62433
 Alpha virt. eigenvalues --    1.63183   1.64708   1.65831   1.66775   1.71969
 Alpha virt. eigenvalues --    1.72610   1.74161   1.78969   1.79822   1.79980
 Alpha virt. eigenvalues --    1.81325   1.82009   1.84106   1.85831   1.86800
 Alpha virt. eigenvalues --    1.90387   1.92907   2.03085   2.05864   2.15546
 Alpha virt. eigenvalues --    2.35004   2.35719   2.37457   2.37749   2.37919
 Alpha virt. eigenvalues --    2.39272   2.44608   2.60309   2.61097   2.62134
 Alpha virt. eigenvalues --    2.63480   2.64059   2.64185   2.64388   2.64884
 Alpha virt. eigenvalues --    2.64967   2.65498   2.66644   2.67052   2.72818
 Alpha virt. eigenvalues --    2.76187   2.82006   3.41080   3.42729   3.43308
 Alpha virt. eigenvalues --    3.43718   3.44090   3.47459   4.20328
          Condensed to atoms (all electrons):
               1          2          3          4          5          6
     1  Si  11.463268   0.381368   0.379942   0.343729  -0.020781  -0.022153
     2  O    0.381368   7.973088  -0.021412  -0.012889   0.002404   0.302396
     3  O    0.379942  -0.021412   7.983703  -0.018969  -0.000473  -0.000082
     4  O    0.343729  -0.012889  -0.018969   8.285856   0.175849  -0.000285
     5  Zr  -0.020781   0.002404  -0.000473   0.175849   9.710126  -0.000734
     6  H   -0.022153   0.302396  -0.000082  -0.000285  -0.000734   0.391056
     7  H   -0.024191   0.000595   0.301101   0.001619  -0.000297  -0.000059
     8  O    0.376243  -0.019430  -0.015454  -0.018807   0.009247   0.000448
     9  H   -0.024442  -0.000522  -0.001167   0.000738  -0.001091  -0.000038
    10  O   -0.001062  -0.000000   0.000000   0.000606   0.218172  -0.000000
    11  H   -0.000023  -0.000000  -0.000000  -0.000043  -0.016378   0.000000
    12  O   -0.001922   0.000001   0.000000   0.000659   0.219623  -0.000000
    13  H    0.000006  -0.000000  -0.000000  -0.000050  -0.015766  -0.000000
    14  O   -0.000509   0.000000   0.000000   0.000484   0.216287   0.000001
    15  H   -0.000003   0.000000  -0.000000  -0.000027  -0.016456  -0.000000
               7          8          9         10         11         12
     1  Si  -0.024191   0.376243  -0.024442  -0.001062  -0.000023  -0.001922
     2  O    0.000595  -0.019430  -0.000522  -0.000000  -0.000000   0.000001
     3  O    0.301101  -0.015454  -0.001167   0.000000  -0.000000   0.000000
     4  O    0.001619  -0.018807   0.000738   0.000606  -0.000043   0.000659
     5  Zr  -0.000297   0.009247  -0.001091   0.218172  -0.016378   0.219623
     6  H   -0.000059   0.000448  -0.000038  -0.000000   0.000000  -0.000000
     7  H    0.395163  -0.000970   0.000086  -0.000001  -0.000000  -0.000000
     8  O   -0.000970   7.967763   0.302010  -0.000000  -0.000000  -0.000001
     9  H    0.000086   0.302010   0.394680  -0.000000   0.000000   0.000000
    10  O   -0.000001  -0.000000  -0.000000   8.178195   0.297795   0.000782
    11  H   -0.000000  -0.000000   0.000000   0.297795   0.386920  -0.000549
    12  O   -0.000000  -0.000001   0.000000   0.000782  -0.000549   8.171703
    13  H    0.000000  -0.000000  -0.000000  -0.000044  -0.000004   0.299669
    14  O   -0.000000   0.000000  -0.000000   0.000785  -0.000053   0.000799
    15  H    0.000000  -0.000000   0.000000  -0.000550  -0.000004  -0.000087
              13         14         15
     1  Si   0.000006  -0.000509  -0.000003
     2  O   -0.000000   0.000000   0.000000
     3  O   -0.000000   0.000000  -0.000000
     4  O   -0.000050   0.000484  -0.000027
     5  Zr  -0.015766   0.216287  -0.016456
     6  H   -0.000000   0.000001  -0.000000
     7  H    0.000000  -0.000000   0.000000
     8  O   -0.000000   0.000000  -0.000000
     9  H   -0.000000  -0.000000   0.000000
    10  O   -0.000044   0.000785  -0.000550
    11  H   -0.000004  -0.000053  -0.000004
    12  O    0.299669   0.000799  -0.000087
    13  H    0.384081  -0.000418  -0.000004
    14  O   -0.000418   8.179933   0.297502
    15  H   -0.000004   0.297502   0.388989
 Mulliken charges:
               1
     1  Si   1.150532
     2  O   -0.605597
     3  O   -0.607189
     4  O   -0.758468
     5  Zr   1.520269
     6  H    0.329452
     7  H    0.326955
     8  O   -0.601047
     9  H    0.329746
    10  O   -0.694677
    11  H    0.332340
    12  O   -0.690677
    13  H    0.332531
    14  O   -0.694809
    15  H    0.330639
 Sum of Mulliken charges =  -0.00000
 Mulliken charges with hydrogens summed into heavy atoms:
               1
     1  Si   1.150532
     2  O   -0.276146
     3  O   -0.280234
     4  O   -0.758468
     5  Zr   1.520269
     8  O   -0.271301
    10  O   -0.362337
    12  O   -0.358145
    14  O   -0.364170
 Electronic spatial extent (au):  <R**2>=           2259.0888
 Charge=             -0.0000 electrons
 Dipole moment (field-independent basis, Debye):
    X=              2.0380    Y=             -0.5527    Z=              0.1377  Tot=              2.1161
 Quadrupole moment (field-independent basis, Debye-Ang):
   XX=            -64.5362   YY=            -68.7157   ZZ=            -68.4499
   XY=              0.0937   XZ=             -0.2626   YZ=             -0.2118
 Traceless Quadrupole moment (field-independent basis, Debye-Ang):
   XX=              2.6977   YY=             -1.4818   ZZ=             -1.2160
   XY=              0.0937   XZ=             -0.2626   YZ=             -0.2118
 Octapole moment (field-independent basis, Debye-Ang**2):
  XXX=             51.5729  YYY=             -8.6162  ZZZ=              2.8903  XYY=             17.9620
  XXY=              8.8228  XXZ=             -2.7729  XZZ=             17.9245  YZZ=              5.1976
  YYZ=             -2.6252  XYZ=             -4.6374
 Hexadecapole moment (field-independent basis, Debye-Ang**3):
 XXXX=          -1820.2514 YYYY=           -377.2746 ZZZZ=           -352.6467 XXXY=           -100.1135
 XXXZ=             17.7742 YYYX=            -42.6083 YYYZ=            -15.5837 ZZZX=             11.3870
 ZZZY=             -2.7274 XXYY=           -301.7982 XXZZ=           -337.1243 YYZZ=           -103.6738
 XXYZ=             43.5118 YYXZ=            -18.7647 ZZXY=             77.8676
 N-N= 6.304921830505D+02 E-N=-3.297860100028D+03  KE= 8.297840315956D+02
 1\1\GINC-GRA600\FOpt\RB3LYP\Gen\H6O7Si1Zr1\SARASHS\24-Jun-2020\0\\#n B
 3LYP/GEN PSEUDO=READ Opt(modredundant)\\Title\\0,1\Si,-1.7794591051,0.
 046925006,-0.0881415125\O,-2.6518457952,1.3640372351,-0.5654532569\O,-
 2.8635658631,-1.2044468412,-0.0291396974\O,-0.5485775311,-0.3500818574
 ,-1.0866124061\Zr,1.2223066409,-0.3494769489,-1.9764439127\H,-3.379605
 6011,1.1602607359,-1.1630421735\H,-2.4637145942,-2.0791397752,-0.08703
 91634\O,-1.0928951828,0.4109527837,1.3663829314\H,-1.6753355372,0.8703
 605489,1.9810414668\O,2.3131151052,-1.8090637788,-1.2533228273\H,3.106
 9033866,-1.9372056563,-0.7266849449\O,2.1399445265,1.3505877038,-1.687
 9276402\H,2.3719416686,2.1945788103,-2.0827884992\O,0.9347726317,-0.63
 65213327,-3.8952433563\H,1.2031552502,-1.2379866331,-4.5950750079\\Ver
 sion=ES64L-G16RevB.01\State=1-A\HF=-866.6868938\RMSD=3.686e-09\RMSF=1.
 458e-04\Dipole=0.5848411,-0.2693926,-0.5277233\Quadrupole=1.0573141,-0
 .832281,-0.225033,-0.144822,-1.4635297,0.0336248\PG=C01 [X(H6O7Si1Zr1)
 ]\\@


 A MAN BEGINS CUTTING HIS WISDOM TEETH THE 1ST
 TIME HE BITES OFF MORE THAN HE CAN CHEW.
 Job cpu time:       0 days  1 hours 11 minutes 13.7 seconds.
 Elapsed time:       0 days  0 hours  4 minutes 39.1 seconds.
 File lengths (MBytes):  RWF=     23 Int=      0 D2E=      0 Chk=      3 Scr=      1
 Normal termination of Gaussian 16 at Wed Jun 24 13:55:10 2020.
