 Entering Gaussian System, Link 0=g16
 Initial command:
 /opt/software/gaussian/g16.b01/l1.exe "/localscratch/sarashs.33453156.0/Gau-3567.inp" -scrdir="/localscratch/sarashs.33453156.0/"
 Entering Link 1 = /opt/software/gaussian/g16.b01/l1.exe PID=      3568.
  
 Copyright (c) 1988-2017, Gaussian, Inc.  All Rights Reserved.
  
 This is part of the Gaussian(R) 16 program.  It is based on
 the Gaussian(R) 09 system (copyright 2009, Gaussian, Inc.),
 the Gaussian(R) 03 system (copyright 2003, Gaussian, Inc.),
 the Gaussian(R) 98 system (copyright 1998, Gaussian, Inc.),
 the Gaussian(R) 94 system (copyright 1995, Gaussian, Inc.),
 the Gaussian 92(TM) system (copyright 1992, Gaussian, Inc.),
 the Gaussian 90(TM) system (copyright 1990, Gaussian, Inc.),
 the Gaussian 88(TM) system (copyright 1988, Gaussian, Inc.),
 the Gaussian 86(TM) system (copyright 1986, Carnegie Mellon
 University), and the Gaussian 82(TM) system (copyright 1983,
 Carnegie Mellon University). Gaussian is a federally registered
 trademark of Gaussian, Inc.
  
 This software contains proprietary and confidential information,
 including trade secrets, belonging to Gaussian, Inc.
  
 This software is provided under written license and may be
 used, copied, transmitted, or stored only in accord with that
 written license.
  
 The following legend is applicable only to US Government
 contracts under FAR:
  
                    RESTRICTED RIGHTS LEGEND
  
 Use, reproduction and disclosure by the US Government is
 subject to restrictions as set forth in subparagraphs (a)
 and (c) of the Commercial Computer Software - Restricted
 Rights clause in FAR 52.227-19.
  
 Gaussian, Inc.
 340 Quinnipiac St., Bldg. 40, Wallingford CT 06492
  
  
 ---------------------------------------------------------------
 Warning -- This program may not be used in any manner that
 competes with the business of Gaussian, Inc. or will provide
 assistance to any competitor of Gaussian, Inc.  The licensee
 of this program is prohibited from giving any competitor of
 Gaussian, Inc. access to this program.  By using this program,
 the user acknowledges that Gaussian, Inc. is engaged in the
 business of creating and licensing software in the field of
 computational chemistry and represents and warrants to the
 licensee that it is not a competitor of Gaussian, Inc. and that
 it will not use this program in any manner prohibited above.
 ---------------------------------------------------------------
  

 Cite this work as:
 Gaussian 16, Revision B.01,
 M. J. Frisch, G. W. Trucks, H. B. Schlegel, G. E. Scuseria, 
 M. A. Robb, J. R. Cheeseman, G. Scalmani, V. Barone, 
 G. A. Petersson, H. Nakatsuji, X. Li, M. Caricato, A. V. Marenich, 
 J. Bloino, B. G. Janesko, R. Gomperts, B. Mennucci, H. P. Hratchian, 
 J. V. Ortiz, A. F. Izmaylov, J. L. Sonnenberg, D. Williams-Young, 
 F. Ding, F. Lipparini, F. Egidi, J. Goings, B. Peng, A. Petrone, 
 T. Henderson, D. Ranasinghe, V. G. Zakrzewski, J. Gao, N. Rega, 
 G. Zheng, W. Liang, M. Hada, M. Ehara, K. Toyota, R. Fukuda, 
 J. Hasegawa, M. Ishida, T. Nakajima, Y. Honda, O. Kitao, H. Nakai, 
 T. Vreven, K. Throssell, J. A. Montgomery, Jr., J. E. Peralta, 
 F. Ogliaro, M. J. Bearpark, J. J. Heyd, E. N. Brothers, K. N. Kudin, 
 V. N. Staroverov, T. A. Keith, R. Kobayashi, J. Normand, 
 K. Raghavachari, A. P. Rendell, J. C. Burant, S. S. Iyengar, 
 J. Tomasi, M. Cossi, J. M. Millam, M. Klene, C. Adamo, R. Cammi, 
 J. W. Ochterski, R. L. Martin, K. Morokuma, O. Farkas, 
 J. B. Foresman, and D. J. Fox, Gaussian, Inc., Wallingford CT, 2016.
 
 ******************************************
 Gaussian 16:  ES64L-G16RevB.01 20-Dec-2017
                24-Jun-2020 
 ******************************************
 %NProcShared=16
 Will use up to   16 processors via shared memory.
 ------------------------------------------
 #n B3LYP/GEN PSEUDO=READ Opt(modredundant)
 ------------------------------------------
 1/18=120,19=15,26=3,38=1/1,3;
 2/9=110,12=2,17=6,18=5,40=1/2;
 3/5=7,11=2,16=1,17=8,25=1,30=1,71=1,74=-5/1,2,3;
 4//1;
 5/5=2,38=5/2;
 6/7=2,8=2,9=2,10=2,28=1/1;
 7//1,2,3,16;
 1/18=20,19=15,26=3/3(2);
 2/9=110/2;
 99//99;
 2/9=110/2;
 3/5=7,6=1,11=2,16=1,17=8,25=1,30=1,71=1,74=-5,82=7/1,2,3;
 4/5=5,16=3,69=1/1;
 5/5=2,38=5/2;
 7//1,2,3,16;
 1/18=20,19=15,26=3/3(-5);
 2/9=110/2;
 6/7=2,8=2,9=2,10=2,19=2,28=1/1;
 99/9=1/99;
 -----
 Title
 -----
 Symbolic Z-matrix:
 Charge =  0 Multiplicity = 1
 Si                   -1.90698  -0.04093  -0.13187 
 O                    -2.77661   1.33183  -0.36828 
 O                    -2.96472  -1.30138  -0.09409 
 O                    -0.62539  -0.3216   -1.09659 
 Zr                    0.68293   0.02248   0.44455 
 H                    -3.57833   1.23701  -0.89318 
 H                    -2.59505  -2.1428   -0.38501 
 O                    -1.07346   0.19403   1.32035 
 H                    -1.20745   1.04108   1.76425 
 O                     0.76245  -1.46204   1.73508 
 H                     0.25089  -1.66224   2.52538 
 O                     0.48605   1.81213   1.27451 
 H                     1.13851   2.52098   1.29898 
 O                     2.45172   0.04302  -0.38786 
 H                     3.2927   -0.42118  -0.39038 
 
 The following ModRedundant input section has been read:
 A       1       4       5 F                                                   
 

 GradGradGradGradGradGradGradGradGradGradGradGradGradGradGradGradGradGrad
 Berny optimization.
 Initialization pass.
                           ----------------------------
                           !    Initial Parameters    !
                           ! (Angstroms and Degrees)  !
 --------------------------                            --------------------------
 ! Name  Definition              Value          Derivative Info.                !
 --------------------------------------------------------------------------------
 ! R1    R(1,2)                  1.6421         estimate D2E/DX2                !
 ! R2    R(1,3)                  1.6459         estimate D2E/DX2                !
 ! R3    R(1,4)                  1.6285         estimate D2E/DX2                !
 ! R4    R(1,5)                  2.654          estimate D2E/DX2                !
 ! R5    R(1,8)                  1.6908         estimate D2E/DX2                !
 ! R6    R(2,6)                  0.9629         estimate D2E/DX2                !
 ! R7    R(3,7)                  0.964          estimate D2E/DX2                !
 ! R8    R(4,5)                  2.0507         estimate D2E/DX2                !
 ! R9    R(5,8)                  1.9701         estimate D2E/DX2                !
 ! R10   R(5,10)                 1.9687         estimate D2E/DX2                !
 ! R11   R(5,12)                 1.9825         estimate D2E/DX2                !
 ! R12   R(5,14)                 1.955          estimate D2E/DX2                !
 ! R13   R(8,9)                  0.9657         estimate D2E/DX2                !
 ! R14   R(10,11)                0.9625         estimate D2E/DX2                !
 ! R15   R(12,13)                0.9637         estimate D2E/DX2                !
 ! R16   R(14,15)                0.9606         estimate D2E/DX2                !
 ! A1    A(2,1,3)              107.6477         estimate D2E/DX2                !
 ! A2    A(2,1,4)              118.3958         estimate D2E/DX2                !
 ! A3    A(2,1,5)              121.8752         estimate D2E/DX2                !
 ! A4    A(2,1,8)              105.5776         estimate D2E/DX2                !
 ! A5    A(3,1,4)              112.7909         estimate D2E/DX2                !
 ! A6    A(3,1,5)              129.8244         estimate D2E/DX2                !
 ! A7    A(3,1,8)              113.7977         estimate D2E/DX2                !
 ! A8    A(4,1,8)               98.3257         estimate D2E/DX2                !
 ! A9    A(1,2,6)              115.9167         estimate D2E/DX2                !
 ! A10   A(1,3,7)              114.5237         estimate D2E/DX2                !
 ! A11   A(1,4,5)               91.6025         Frozen                          !
 ! A12   A(1,5,10)              99.4261         estimate D2E/DX2                !
 ! A13   A(1,5,12)              90.8928         estimate D2E/DX2                !
 ! A14   A(1,5,14)             142.2487         estimate D2E/DX2                !
 ! A15   A(4,5,8)               77.2858         estimate D2E/DX2                !
 ! A16   A(4,5,10)             113.073          estimate D2E/DX2                !
 ! A17   A(4,5,12)             113.7487         estimate D2E/DX2                !
 ! A18   A(4,5,14)             105.011          estimate D2E/DX2                !
 ! A19   A(8,5,10)              79.0623         estimate D2E/DX2                !
 ! A20   A(8,5,12)              69.3144         estimate D2E/DX2                !
 ! A21   A(10,5,12)            114.2232         estimate D2E/DX2                !
 ! A22   A(10,5,14)            104.507          estimate D2E/DX2                !
 ! A23   A(12,5,14)            104.9879         estimate D2E/DX2                !
 ! A24   A(1,8,9)              116.6352         estimate D2E/DX2                !
 ! A25   A(5,8,9)              113.8556         estimate D2E/DX2                !
 ! A26   A(5,10,11)            132.3501         estimate D2E/DX2                !
 ! A27   A(5,12,13)            127.3992         estimate D2E/DX2                !
 ! A28   A(5,14,15)            142.0122         estimate D2E/DX2                !
 ! A29   L(8,5,14,4,-1)        182.2968         estimate D2E/DX2                !
 ! A30   L(8,5,14,4,-2)        174.5743         estimate D2E/DX2                !
 ! D1    D(3,1,2,6)            -31.5445         estimate D2E/DX2                !
 ! D2    D(4,1,2,6)             97.8074         estimate D2E/DX2                !
 ! D3    D(5,1,2,6)            156.8686         estimate D2E/DX2                !
 ! D4    D(8,1,2,6)           -153.4334         estimate D2E/DX2                !
 ! D5    D(2,1,3,7)            151.7162         estimate D2E/DX2                !
 ! D6    D(4,1,3,7)             19.2636         estimate D2E/DX2                !
 ! D7    D(5,1,3,7)            -37.5939         estimate D2E/DX2                !
 ! D8    D(8,1,3,7)            -91.6497         estimate D2E/DX2                !
 ! D9    D(2,1,5,10)           141.9464         estimate D2E/DX2                !
 ! D10   D(2,1,5,12)            27.2036         estimate D2E/DX2                !
 ! D11   D(2,1,5,14)           -89.0656         estimate D2E/DX2                !
 ! D12   D(3,1,5,10)           -27.5942         estimate D2E/DX2                !
 ! D13   D(3,1,5,12)          -142.337          estimate D2E/DX2                !
 ! D14   D(3,1,5,14)           101.3938         estimate D2E/DX2                !
 ! D15   D(2,1,8,9)             -0.7356         estimate D2E/DX2                !
 ! D16   D(3,1,8,9)           -118.5698         estimate D2E/DX2                !
 ! D17   D(4,1,8,9)            121.931          estimate D2E/DX2                !
 ! D18   D(4,5,8,9)           -123.5562         estimate D2E/DX2                !
 ! D19   D(10,5,8,9)           119.5209         estimate D2E/DX2                !
 ! D20   D(12,5,8,9)            -1.7877         estimate D2E/DX2                !
 ! D21   D(9,8,14,15)          117.7872         estimate D2E/DX2                !
 ! D22   D(1,5,10,11)          -51.3215         estimate D2E/DX2                !
 ! D23   D(4,5,10,11)          -88.2372         estimate D2E/DX2                !
 ! D24   D(8,5,10,11)          -17.2617         estimate D2E/DX2                !
 ! D25   D(12,5,10,11)          43.9578         estimate D2E/DX2                !
 ! D26   D(14,5,10,11)         158.121          estimate D2E/DX2                !
 ! D27   D(1,5,12,13)         -148.0894         estimate D2E/DX2                !
 ! D28   D(4,5,12,13)         -116.9745         estimate D2E/DX2                !
 ! D29   D(8,5,12,13)          178.059          estimate D2E/DX2                !
 ! D30   D(10,5,12,13)         111.155          estimate D2E/DX2                !
 ! D31   D(14,5,12,13)          -2.724          estimate D2E/DX2                !
 ! D32   D(1,5,14,15)         -125.5418         estimate D2E/DX2                !
 ! D33   D(4,5,14,15)         -117.1598         estimate D2E/DX2                !
 ! D34   D(10,5,14,15)           2.0821         estimate D2E/DX2                !
 ! D35   D(12,5,14,15)         122.613          estimate D2E/DX2                !
 --------------------------------------------------------------------------------
 Trust Radius=3.00D-01 FncErr=1.00D-07 GrdErr=1.00D-06 EigMax=2.50D+02 EigMin=1.00D-04
 Number of steps in this run=     91 maximum allowed number of steps=    100.
 GradGradGradGradGradGradGradGradGradGradGradGradGradGradGradGradGradGrad

                          Input orientation:                          
 ---------------------------------------------------------------------
 Center     Atomic      Atomic             Coordinates (Angstroms)
 Number     Number       Type             X           Y           Z
 ---------------------------------------------------------------------
      1         14           0       -1.906980   -0.040930   -0.131870
      2          8           0       -2.776610    1.331830   -0.368280
      3          8           0       -2.964720   -1.301380   -0.094090
      4          8           0       -0.625390   -0.321600   -1.096590
      5         40           0        0.682930    0.022480    0.444550
      6          1           0       -3.578330    1.237010   -0.893180
      7          1           0       -2.595050   -2.142800   -0.385010
      8          8           0       -1.073460    0.194030    1.320350
      9          1           0       -1.207450    1.041080    1.764250
     10          8           0        0.762450   -1.462040    1.735080
     11          1           0        0.250890   -1.662240    2.525380
     12          8           0        0.486050    1.812130    1.274510
     13          1           0        1.138510    2.520980    1.298980
     14          8           0        2.451720    0.043020   -0.387860
     15          1           0        3.292700   -0.421180   -0.390380
 ---------------------------------------------------------------------
                    Distance matrix (angstroms):
                    1          2          3          4          5
     1  Si   0.000000
     2  O    1.642138   0.000000
     3  O    1.645897   2.654121   0.000000
     4  O    1.628476   2.809273   2.727167   0.000000
     5  Zr   2.654037   3.787282   3.917664   2.050660   0.000000
     6  H    2.237439   0.962946   2.731023   3.345220   4.628492
     7  H    2.226068   3.479411   0.963991   2.775370   4.015191
     8  O    1.690830   2.654577   2.795310   2.511621   1.970117
     9  H    2.292457   2.663547   3.468219   3.221816   2.520454
    10  O    3.554000   4.975417   4.154933   3.353365   1.968652
    11  H    3.787615   5.148153   4.163171   3.960284   2.711972
    12  O    3.337413   3.684345   4.845082   3.377901   1.982534
    13  H    4.229152   4.418371   5.778198   4.114652   2.679572
    14  O    4.367018   5.384872   5.588518   3.178656   1.954980
    15  H    5.219970   6.317441   6.325966   3.982471   2.775760
                    6          7          8          9         10
     6  H    0.000000
     7  H    3.556430   0.000000
     8  O    3.501699   3.268679   0.000000
     9  H    3.566706   4.084341   0.965657   0.000000
    10  O    5.747608   4.028774   2.507017   3.185430   0.000000
    11  H    5.895348   4.098864   2.579096   3.164493   0.962470
    12  O    4.642071   5.280971   2.247759   1.924138   3.317938
    13  H    5.357492   6.206943   3.210602   2.812492   4.024432
    14  O    6.167857   5.499791   3.920163   4.360874   3.102533
    15  H    7.086145   6.134297   4.729528   5.199229   3.464554
                   11         12         13         14         15
    11  H    0.000000
    12  O    3.700165   0.000000
    13  H    4.448736   0.963728   0.000000
    14  O    4.029706   3.123633   3.272650   0.000000
    15  H    4.392550   3.954341   4.018803   0.960591   0.000000
 Stoichiometry    H6O7SiZr
 Framework group  C1[X(H6O7SiZr)]
 Deg. of freedom    39
 Full point group                 C1      NOp   1
 Largest Abelian subgroup         C1      NOp   1
 Largest concise Abelian subgroup C1      NOp   1
                         Standard orientation:                         
 ---------------------------------------------------------------------
 Center     Atomic      Atomic             Coordinates (Angstroms)
 Number     Number       Type             X           Y           Z
 ---------------------------------------------------------------------
      1         14           0       -1.689333   -0.036086   -0.169292
      2          8           0       -2.562994    1.353478   -0.218699
      3          8           0       -2.745259   -1.282498    0.031840
      4          8           0       -0.605755   -0.312104   -1.353187
      5         40           0        0.962591   -0.021278   -0.064421
      6          1           0       -3.447104    1.281655   -0.593475
      7          1           0       -2.448299   -2.122016   -0.337350
      8          8           0       -0.605874    0.154181    1.114772
      9          1           0       -0.643560    0.992608    1.592385
     10          8           0        1.245261   -1.535877    1.161009
     11          1           0        0.879632   -1.747093    2.025908
     12          8           0        0.948510    1.751443    0.823107
     13          1           0        1.607179    2.450564    0.744656
     14          8           0        2.554371   -0.005877   -1.199297
     15          1           0        3.373110   -0.481348   -1.361562
 ---------------------------------------------------------------------
 Rotational constants (GHZ):           1.8241622           0.7292880           0.6849159
 General basis read from cards:  (5D, 7F)
 ======================================================================================================
                                       Pseudopotential Parameters
 ======================================================================================================
  Center     Atomic      Valence      Angular      Power
  Number     Number     Electrons     Momentum     of R      Exponent        Coefficient   SO-Coeffient
 ======================================================================================================
    1         14
                                   No pseudopotential on this center.
    2          8
                                   No pseudopotential on this center.
    3          8
                                   No pseudopotential on this center.
    4          8
                                   No pseudopotential on this center.
    5         40           12
                                      F and up 
                                                     0      645.9321873       -0.04258430    0.00000000
                                                     1      134.7547401      -20.22224090    0.00000000
                                                     2       42.3074619     -101.86951720    0.00000000
                                                     2       12.0003227      -41.61957840    0.00000000
                                                     2        4.1260454       -4.69861600    0.00000000
                                      S - F
                                                     0      117.6251862        2.79105590    0.00000000
                                                     1       22.9646089       41.94894590    0.00000000
                                                     2        4.5225298       67.72718660    0.00000000
                                      P - F
                                                     0       47.1953145        4.99111440    0.00000000
                                                     1       48.0356033       20.71931720    0.00000000
                                                     2       19.4541456      195.58677580    0.00000000
                                                     2        4.0512875       48.28771760    0.00000000
                                      D - F
                                                     0       79.9073983        3.00492260    0.00000000
                                                     1       45.8263798       25.93779890    0.00000000
                                                     2       26.9903522      125.12449340    0.00000000
                                                     2        9.6835718       70.76340220    0.00000000
                                                     2        2.7995666       15.04928220    0.00000000
    6          1
                                   No pseudopotential on this center.
    7          1
                                   No pseudopotential on this center.
    8          8
                                   No pseudopotential on this center.
    9          1
                                   No pseudopotential on this center.
   10          8
                                   No pseudopotential on this center.
   11          1
                                   No pseudopotential on this center.
   12          8
                                   No pseudopotential on this center.
   13          1
                                   No pseudopotential on this center.
   14          8
                                   No pseudopotential on this center.
   15          1
                                   No pseudopotential on this center.
 ======================================================================================================
 There are   178 symmetry adapted cartesian basis functions of A   symmetry.
 There are   168 symmetry adapted basis functions of A   symmetry.
   168 basis functions,   339 primitive gaussians,   178 cartesian basis functions
    44 alpha electrons       44 beta electrons
       nuclear repulsion energy       694.4695736330 Hartrees.
 NAtoms=   15 NActive=   15 NUniq=   15 SFac= 1.00D+00 NAtFMM=   60 NAOKFM=F Big=F
 Integral buffers will be    131072 words long.
 Raffenetti 2 integral format.
 Two-electron integral symmetry is turned on.
 One-electron integrals computed using PRISM.
   1 Symmetry operations used in ECPInt.
 ECPInt:  NShTT=    1770 NPrTT=   10201 LenC2=    1692 LenP2D=    6950.
 LDataN:  DoStor=T MaxTD1= 5 Len=  102
 NBasis=   168 RedAO= T EigKep=  5.82D-03  NBF=   168
 NBsUse=   168 1.00D-06 EigRej= -1.00D+00 NBFU=   168
 Defaulting to unpruned grid for atomic number  40.
 ExpMin= 2.43D-02 ExpMax= 1.61D+04 ExpMxC= 2.43D+03 IAcc=3 IRadAn=         5 AccDes= 0.00D+00
 Harris functional with IExCor=  402 and IRadAn=       5 diagonalized for initial guess.
 HarFok:  IExCor=  402 AccDes= 0.00D+00 IRadAn=         5 IDoV= 1 UseB2=F ITyADJ=14
 ICtDFT=  3500011 ScaDFX=  1.000000  1.000000  1.000000  1.000000
 Defaulting to unpruned grid for atomic number  40.
 FoFCou: FMM=F IPFlag=           0 FMFlag=      100000 FMFlg1=           0
         NFxFlg=           0 DoJE=T BraDBF=F KetDBF=T FulRan=T
         wScrn=  0.000000 ICntrl=       500 IOpCl=  0 I1Cent=   200000004 NGrid=           0
         NMat0=    1 NMatS0=      1 NMatT0=    0 NMatD0=    1 NMtDS0=    0 NMtDT0=    0
 Petite list used in FoFCou.
 Requested convergence on RMS density matrix=1.00D-08 within 128 cycles.
 Requested convergence on MAX density matrix=1.00D-06.
 Requested convergence on             energy=1.00D-06.
 No special actions if energy rises.
 Defaulting to unpruned grid for atomic number  40.
 Defaulting to unpruned grid for atomic number  40.
 Defaulting to unpruned grid for atomic number  40.
 Defaulting to unpruned grid for atomic number  40.
 Defaulting to unpruned grid for atomic number  40.
 Defaulting to unpruned grid for atomic number  40.
 Defaulting to unpruned grid for atomic number  40.
 Defaulting to unpruned grid for atomic number  40.
 Defaulting to unpruned grid for atomic number  40.
 Defaulting to unpruned grid for atomic number  40.
 Defaulting to unpruned grid for atomic number  40.
 Defaulting to unpruned grid for atomic number  40.
 Defaulting to unpruned grid for atomic number  40.
 Defaulting to unpruned grid for atomic number  40.
 Defaulting to unpruned grid for atomic number  40.
 Defaulting to unpruned grid for atomic number  40.
 SCF Done:  E(RB3LYP) =  -866.628431320     A.U. after   15 cycles
            NFock= 15  Conv=0.21D-08     -V/T= 2.0436

 **********************************************************************

            Population analysis using the SCF Density.

 **********************************************************************

 Orbital symmetries:
       Occupied  (A) (A) (A) (A) (A) (A) (A) (A) (A) (A) (A) (A)
                 (A) (A) (A) (A) (A) (A) (A) (A) (A) (A) (A) (A)
                 (A) (A) (A) (A) (A) (A) (A) (A) (A) (A) (A) (A)
                 (A) (A) (A) (A) (A) (A) (A) (A)
       Virtual   (A) (A) (A) (A) (A) (A) (A) (A) (A) (A) (A) (A)
                 (A) (A) (A) (A) (A) (A) (A) (A) (A) (A) (A) (A)
                 (A) (A) (A) (A) (A) (A) (A) (A) (A) (A) (A) (A)
                 (A) (A) (A) (A) (A) (A) (A) (A) (A) (A) (A) (A)
                 (A) (A) (A) (A) (A) (A) (A) (A) (A) (A) (A) (A)
                 (A) (A) (A) (A) (A) (A) (A) (A) (A) (A) (A) (A)
                 (A) (A) (A) (A) (A) (A) (A) (A) (A) (A) (A) (A)
                 (A) (A) (A) (A) (A) (A) (A) (A) (A) (A) (A) (A)
                 (A) (A) (A) (A) (A) (A) (A) (A) (A) (A) (A) (A)
                 (A) (A) (A) (A) (A) (A) (A) (A) (A) (A) (A) (A)
                 (A) (A) (A) (A)
 The electronic state is 1-A.
 Alpha  occ. eigenvalues --  -66.21309 -19.19414 -19.16445 -19.16400 -19.13301
 Alpha  occ. eigenvalues --  -19.12514 -19.11793 -19.11714  -5.35835  -3.71884
 Alpha  occ. eigenvalues --   -3.71716  -3.71650  -2.04133  -1.27249  -1.24848
 Alpha  occ. eigenvalues --   -1.24685  -1.06442  -1.02833  -1.01031  -0.94816
 Alpha  occ. eigenvalues --   -0.93944  -0.93179  -0.92958  -0.61534  -0.56643
 Alpha  occ. eigenvalues --   -0.53554  -0.49216  -0.47219  -0.45618  -0.44022
 Alpha  occ. eigenvalues --   -0.43381  -0.41505  -0.38925  -0.37020  -0.35673
 Alpha  occ. eigenvalues --   -0.35251  -0.34257  -0.33286  -0.31999  -0.31212
 Alpha  occ. eigenvalues --   -0.30776  -0.30017  -0.29320  -0.28578
 Alpha virt. eigenvalues --   -0.01187  -0.00890  -0.00179   0.00804   0.01788
 Alpha virt. eigenvalues --    0.02626   0.03966   0.04104   0.07608   0.08188
 Alpha virt. eigenvalues --    0.10189   0.13677   0.14253   0.15755   0.15980
 Alpha virt. eigenvalues --    0.17273   0.17809   0.18811   0.20287   0.23563
 Alpha virt. eigenvalues --    0.24242   0.24437   0.25243   0.26591   0.29025
 Alpha virt. eigenvalues --    0.30195   0.31559   0.33614   0.35137   0.38752
 Alpha virt. eigenvalues --    0.42739   0.53945   0.60098   0.76952   0.78884
 Alpha virt. eigenvalues --    0.81260   0.84052   0.86489   0.87823   0.88389
 Alpha virt. eigenvalues --    0.89636   0.90200   0.92061   0.93815   0.95205
 Alpha virt. eigenvalues --    0.96581   0.97388   1.00040   1.01770   1.03681
 Alpha virt. eigenvalues --    1.06080   1.07459   1.08412   1.10519   1.11896
 Alpha virt. eigenvalues --    1.13103   1.15552   1.16982   1.19172   1.20782
 Alpha virt. eigenvalues --    1.24910   1.28881   1.32890   1.44927   1.47352
 Alpha virt. eigenvalues --    1.49119   1.50716   1.53220   1.56065   1.57240
 Alpha virt. eigenvalues --    1.58535   1.59526   1.60361   1.62430   1.64245
 Alpha virt. eigenvalues --    1.65747   1.67767   1.68954   1.71332   1.72217
 Alpha virt. eigenvalues --    1.76703   1.78074   1.80179   1.81948   1.82552
 Alpha virt. eigenvalues --    1.84064   1.84648   1.87004   1.88717   1.90393
 Alpha virt. eigenvalues --    1.91928   1.95717   2.01500   2.06760   2.12905
 Alpha virt. eigenvalues --    2.30579   2.34677   2.35524   2.38910   2.40450
 Alpha virt. eigenvalues --    2.41387   2.45491   2.54023   2.58405   2.60070
 Alpha virt. eigenvalues --    2.61620   2.62870   2.64526   2.65883   2.66090
 Alpha virt. eigenvalues --    2.66263   2.67014   2.67559   2.68603   2.70861
 Alpha virt. eigenvalues --    2.76247   2.80573   3.40259   3.41526   3.43249
 Alpha virt. eigenvalues --    3.44817   3.46162   3.50041   6.37056
          Condensed to atoms (all electrons):
               1          2          3          4          5          6
     1  Si  11.584891   0.383725   0.378471   0.341087  -0.091970  -0.021625
     2  O    0.383725   7.943621  -0.020114  -0.010855   0.011693   0.304855
     3  O    0.378471  -0.020114   7.952182  -0.017204   0.012511  -0.000533
     4  O    0.341087  -0.010855  -0.017204   8.244566   0.184012  -0.000326
     5  Zr  -0.091970   0.011693   0.012511   0.184012   9.954039  -0.000971
     6  H   -0.021625   0.304855  -0.000533  -0.000326  -0.000971   0.374872
     7  H   -0.017378   0.000382   0.301849   0.001073  -0.003077  -0.000065
     8  O    0.236031  -0.017505  -0.011878  -0.032944  -0.045693   0.000569
     9  H   -0.012815   0.002092  -0.000554  -0.000090   0.001962  -0.000040
    10  O   -0.011388  -0.000001  -0.000056  -0.000120   0.241857   0.000000
    11  H    0.000028  -0.000000  -0.000042  -0.000095  -0.020702   0.000000
    12  O   -0.018387  -0.000071  -0.000002   0.000150   0.222930   0.000005
    13  H    0.000830  -0.000007   0.000000  -0.000014  -0.015075  -0.000000
    14  O   -0.001921  -0.000000  -0.000000   0.000745   0.205722   0.000000
    15  H    0.000028  -0.000000  -0.000000  -0.000058  -0.016569  -0.000000
               7          8          9         10         11         12
     1  Si  -0.017378   0.236031  -0.012815  -0.011388   0.000028  -0.018387
     2  O    0.000382  -0.017505   0.002092  -0.000001  -0.000000  -0.000071
     3  O    0.301849  -0.011878  -0.000554  -0.000056  -0.000042  -0.000002
     4  O    0.001073  -0.032944  -0.000090  -0.000120  -0.000095   0.000150
     5  Zr  -0.003077  -0.045693   0.001962   0.241857  -0.020702   0.222930
     6  H   -0.000065   0.000569  -0.000040   0.000000   0.000000   0.000005
     7  H    0.378164  -0.000079   0.000046  -0.000032  -0.000003  -0.000000
     8  O   -0.000079   8.311110   0.298552  -0.026399  -0.001785  -0.060713
     9  H    0.000046   0.298552   0.300918  -0.000836  -0.000331   0.014049
    10  O   -0.000032  -0.026399  -0.000836   8.186051   0.294300   0.000469
    11  H   -0.000003  -0.001785  -0.000331   0.294300   0.405339  -0.000331
    12  O   -0.000000  -0.060713   0.014049   0.000469  -0.000331   8.279917
    13  H    0.000000   0.001955   0.000098  -0.000071  -0.000002   0.293726
    14  O   -0.000000  -0.001216   0.000050   0.001077   0.000024   0.001021
    15  H    0.000000   0.000034  -0.000000  -0.000390   0.000004  -0.000083
              13         14         15
     1  Si   0.000830  -0.001921   0.000028
     2  O   -0.000007  -0.000000  -0.000000
     3  O    0.000000  -0.000000  -0.000000
     4  O   -0.000014   0.000745  -0.000058
     5  Zr  -0.015075   0.205722  -0.016569
     6  H   -0.000000   0.000000  -0.000000
     7  H    0.000000  -0.000000   0.000000
     8  O    0.001955  -0.001216   0.000034
     9  H    0.000098   0.000050  -0.000000
    10  O   -0.000071   0.001077  -0.000390
    11  H   -0.000002   0.000024   0.000004
    12  O    0.293726   0.001021  -0.000083
    13  H    0.396677  -0.001419   0.000016
    14  O   -0.001419   8.191925   0.293324
    15  H    0.000016   0.293324   0.400696
 Mulliken charges:
               1
     1  Si   1.250394
     2  O   -0.597815
     3  O   -0.594629
     4  O   -0.709928
     5  Zr   1.359332
     6  H    0.343259
     7  H    0.339121
     8  O   -0.650038
     9  H    0.396900
    10  O   -0.684462
    11  H    0.323596
    12  O   -0.732681
    13  H    0.323285
    14  O   -0.689332
    15  H    0.322999
 Sum of Mulliken charges =  -0.00000
 Mulliken charges with hydrogens summed into heavy atoms:
               1
     1  Si   1.250394
     2  O   -0.254556
     3  O   -0.255508
     4  O   -0.709928
     5  Zr   1.359332
     8  O   -0.253138
    10  O   -0.360866
    12  O   -0.409397
    14  O   -0.366333
 Electronic spatial extent (au):  <R**2>=           1675.9557
 Charge=              0.0000 electrons
 Dipole moment (field-independent basis, Debye):
    X=             -1.2321    Y=             -0.0258    Z=              1.3793  Tot=              1.8496
 Quadrupole moment (field-independent basis, Debye-Ang):
   XX=            -64.7990   YY=            -69.9300   ZZ=            -73.7530
   XY=              1.7581   XZ=              1.8545   YZ=              1.7209
 Traceless Quadrupole moment (field-independent basis, Debye-Ang):
   XX=              4.6950   YY=             -0.4360   ZZ=             -4.2590
   XY=              1.7581   XZ=              1.8545   YZ=              1.7209
 Octapole moment (field-independent basis, Debye-Ang**2):
  XXX=             23.3789  YYY=             -3.8909  ZZZ=             21.7728  XYY=              5.1552
  XXY=             10.8177  XXZ=            -22.9143  XZZ=              5.8725  YZZ=             -3.8647
  YYZ=              0.0345  XYZ=              5.3505
 Hexadecapole moment (field-independent basis, Debye-Ang**3):
 XXXX=          -1060.1124 YYYY=           -377.1720 ZZZZ=           -314.2364 XXXY=            -77.7796
 XXXZ=             16.8189 YYYX=             73.0424 YYYZ=             10.2035 ZZZX=             -1.5417
 ZZZY=            -14.3355 XXYY=           -247.6272 XXZZ=           -251.5858 YYZZ=           -110.1724
 XXYZ=             24.1523 YYXZ=             10.9002 ZZXY=            -16.2279
 N-N= 6.944695736330D+02 E-N=-3.425189972535D+03  KE= 8.304444802426D+02
   1 Symmetry operations used in ECPInt.
 ECPInt:  NShTT=    1770 NPrTT=   10201 LenC2=    1692 LenP2D=    6950.
 LDataN:  DoStor=T MaxTD1= 6 Len=  172
 Calling FoFJK, ICntrl=      2127 FMM=F ISym2X=0 I1Cent= 0 IOpClX= 0 NMat=1 NMatS=1 NMatT=0.
 Defaulting to unpruned grid for atomic number  40.
 Defaulting to unpruned grid for atomic number  40.
 Defaulting to unpruned grid for atomic number  40.
 Defaulting to unpruned grid for atomic number  40.
 Defaulting to unpruned grid for atomic number  40.
 Defaulting to unpruned grid for atomic number  40.
 Defaulting to unpruned grid for atomic number  40.
 Defaulting to unpruned grid for atomic number  40.
 Defaulting to unpruned grid for atomic number  40.
 Defaulting to unpruned grid for atomic number  40.
 Defaulting to unpruned grid for atomic number  40.
 Defaulting to unpruned grid for atomic number  40.
 Defaulting to unpruned grid for atomic number  40.
 Defaulting to unpruned grid for atomic number  40.
 Defaulting to unpruned grid for atomic number  40.
 Defaulting to unpruned grid for atomic number  40.
 ***** Axes restored to original set *****
 -------------------------------------------------------------------
 Center     Atomic                   Forces (Hartrees/Bohr)
 Number     Number              X              Y              Z
 -------------------------------------------------------------------
      1       14          -0.042324186   -0.007188814   -0.033132211
      2        8           0.002539059   -0.001480017    0.003954483
      3        8           0.000912606    0.001921628    0.002759253
      4        8          -0.012341700    0.003275349    0.015268988
      5       40           0.125246985   -0.018727327   -0.032224615
      6        1          -0.000198736   -0.000441443    0.000092092
      7        1           0.000273273   -0.000340388   -0.000120288
      8        8          -0.117079052   -0.003698027    0.039495694
      9        1           0.000589058    0.008179249    0.003948359
     10        8           0.011781150   -0.013005490    0.001198107
     11        1          -0.000094661    0.001891021   -0.001904822
     12        8           0.012980680    0.031244289    0.007338029
     13        1           0.002020211   -0.000918170   -0.001743068
     14        8           0.013888906   -0.003567703   -0.003001594
     15        1           0.001806407    0.002855842   -0.001928406
 -------------------------------------------------------------------
 Cartesian Forces:  Max     0.125246985 RMS     0.028893120

 GradGradGradGradGradGradGradGradGradGradGradGradGradGradGradGradGradGrad
 Berny optimization.
 FormGI is forming the generalized inverse of G from B-inverse, IUseBI=4.
 Internal  Forces:  Max     0.109063565 RMS     0.015589493
 Search for a local minimum.
 Step number   1 out of a maximum of   91
 All quantities printed in internal units (Hartrees-Bohrs-Radians)
 Mixed Optimization -- RFO/linear search
 Second derivative matrix not updated -- first step.
 ITU=  0
     Eigenvalues ---    0.00230   0.00230   0.00230   0.01991   0.02243
     Eigenvalues ---    0.03732   0.03782   0.04841   0.05111   0.06724
     Eigenvalues ---    0.09422   0.11144   0.13366   0.13955   0.14746
     Eigenvalues ---    0.15257   0.15928   0.16000   0.16000   0.16000
     Eigenvalues ---    0.16000   0.17564   0.18952   0.19683   0.20440
     Eigenvalues ---    0.20959   0.21402   0.22324   0.32734   0.35522
     Eigenvalues ---    0.43277   0.43863   0.54274   0.54624   0.54679
     Eigenvalues ---    0.54844   0.54946   0.553461000.000001000.00000
     Eigenvalues --- 1000.000001000.000001000.000001000.000001000.00000
     Eigenvalues --- 1000.000001000.000001000.000001000.000001000.00000
     Eigenvalues --- 1000.000001000.000001000.000001000.000001000.00000
     Eigenvalues --- 1000.000001000.000001000.000001000.000001000.00000
     Eigenvalues --- 1000.000001000.000001000.000001000.000001000.00000
     Eigenvalues --- 1000.000001000.000001000.000001000.000001000.00000
     Eigenvalues --- 1000.000001000.000001000.000001000.000001000.00000
     Eigenvalues --- 1000.000001000.000001000.000001000.000001000.00000
     Eigenvalues --- 1000.00000
 RFO step:  Lambda=-6.80171947D-02 EMin= 2.30000000D-03
 Linear search not attempted -- first point.
 Maximum step size (   0.300) exceeded in Quadratic search.
    -- Step size scaled by   0.596
 Iteration  1 RMS(Cart)=  0.05127707 RMS(Int)=  0.00356113
 Iteration  2 RMS(Cart)=  0.00456688 RMS(Int)=  0.00026077
 Iteration  3 RMS(Cart)=  0.00001154 RMS(Int)=  0.00026060
 Iteration  4 RMS(Cart)=  0.00000000 RMS(Int)=  0.00026060
 Iteration  1 RMS(Cart)=  0.00000839 RMS(Int)=  0.00001671
 Iteration  2 RMS(Cart)=  0.00000701 RMS(Int)=  0.00001782
 Iteration  3 RMS(Cart)=  0.00000586 RMS(Int)=  0.00002020
 Iteration  4 RMS(Cart)=  0.00000490 RMS(Int)=  0.00002291
 Iteration  5 RMS(Cart)=  0.00000410 RMS(Int)=  0.00002552
 Iteration  6 RMS(Cart)=  0.00000342 RMS(Int)=  0.00002788
 Iteration  7 RMS(Cart)=  0.00000286 RMS(Int)=  0.00002994
 Iteration  8 RMS(Cart)=  0.00000239 RMS(Int)=  0.00003171
 Iteration  9 RMS(Cart)=  0.00000200 RMS(Int)=  0.00003323
 Iteration 10 RMS(Cart)=  0.00000167 RMS(Int)=  0.00003451
 Iteration 11 RMS(Cart)=  0.00000140 RMS(Int)=  0.00003560
 Iteration 12 RMS(Cart)=  0.00000117 RMS(Int)=  0.00003651
 Iteration 13 RMS(Cart)=  0.00000098 RMS(Int)=  0.00003728
 Variable       Old X    -DE/DX   Delta X   Delta X   Delta X     New X
                                 (Linear)    (Quad)   (Total)
    R1        3.10319  -0.00343   0.00000  -0.00403  -0.00403   3.09916
    R2        3.11029  -0.00191   0.00000  -0.00228  -0.00228   3.10802
    R3        3.07737  -0.00605   0.00000   0.02447   0.02433   3.10170
    R4        5.01540   0.05113   0.00000   0.08337   0.08327   5.09867
    R5        3.19520   0.00205   0.00000  -0.00633  -0.00618   3.18902
    R6        1.81970   0.00016   0.00000   0.00015   0.00015   1.81986
    R7        1.82168   0.00044   0.00000   0.00042   0.00042   1.82210
    R8        3.87519   0.00341   0.00000   0.08587   0.08577   3.96095
    R9        3.72298   0.10906   0.00000   0.23501   0.23525   3.95823
   R10        3.72021   0.00839   0.00000   0.01889   0.01889   3.73910
   R11        3.74645   0.02823   0.00000   0.06534   0.06534   3.81179
   R12        3.69438   0.01626   0.00000   0.03563   0.03563   3.73000
   R13        1.82483   0.00891   0.00000   0.00869   0.00869   1.83352
   R14        1.81880  -0.00191   0.00000  -0.00184  -0.00184   1.81696
   R15        1.82118   0.00065   0.00000   0.00063   0.00063   1.82181
   R16        1.81525   0.00021   0.00000   0.00020   0.00020   1.81545
    A1        1.87881   0.00217   0.00000  -0.00112  -0.00152   1.87729
    A2        2.06640   0.00264   0.00000  -0.00245  -0.00245   2.06394
    A3        2.12712  -0.00228   0.00000  -0.00519  -0.00521   2.12192
    A4        1.84268  -0.00752   0.00000  -0.01940  -0.01944   1.82323
    A5        1.96857   0.00423   0.00000  -0.00642  -0.00612   1.96245
    A6        2.26586   0.00067   0.00000   0.00721   0.00761   2.27348
    A7        1.98615  -0.01301   0.00000  -0.03010  -0.03046   1.95569
    A8        1.71611   0.00944   0.00000   0.05916   0.05898   1.77508
    A9        2.02313  -0.00070   0.00000  -0.00182  -0.00182   2.02131
   A10        1.99882  -0.00020   0.00000  -0.00052  -0.00052   1.99830
   A11        1.59877   0.02199   0.00000   0.00000  -0.00002   1.59875
   A12        1.73531   0.00588   0.00000   0.01809   0.01753   1.75284
   A13        1.58638   0.01256   0.00000   0.03041   0.03017   1.61655
   A14        2.48271  -0.00196   0.00000  -0.00750  -0.00724   2.47546
   A15        1.34889  -0.01745   0.00000  -0.02116  -0.02136   1.32753
   A16        1.97350  -0.00255   0.00000   0.00030  -0.00000   1.97349
   A17        1.98529   0.00236   0.00000   0.01356   0.01328   1.99857
   A18        1.83279   0.00803   0.00000  -0.00067  -0.00055   1.83224
   A19        1.37990   0.00913   0.00000   0.02309   0.02318   1.40308
   A20        1.20976   0.02105   0.00000   0.05195   0.05156   1.26133
   A21        1.99357   0.01069   0.00000   0.03009   0.02922   2.02280
   A22        1.82399  -0.00691   0.00000  -0.02089  -0.02071   1.80328
   A23        1.83239  -0.01395   0.00000  -0.03250  -0.03239   1.80000
   A24        2.03567   0.00457   0.00000   0.00872   0.00875   2.04442
   A25        1.98716   0.00099   0.00000   0.00054   0.00064   1.98779
   A26        2.30995  -0.00343   0.00000  -0.00896  -0.00896   2.30098
   A27        2.22354  -0.00494   0.00000  -0.01291  -0.01291   2.21063
   A28        2.47858   0.00734   0.00000   0.01827   0.01832   2.49690
   A29        3.18168  -0.00942   0.00000  -0.02183  -0.02191   3.15977
   A30        3.04690   0.00239   0.00000   0.00962   0.00924   3.05614
    D1       -0.55056  -0.00611   0.00000  -0.00633  -0.00631  -0.55687
    D2        1.70706   0.00424   0.00000  -0.01863  -0.01850   1.68856
    D3        2.73787  -0.00984   0.00000  -0.01284  -0.01283   2.72504
    D4       -2.67792   0.01214   0.00000   0.04023   0.04008  -2.63784
    D5        2.64795   0.00513   0.00000   0.00679   0.00662   2.65457
    D6        0.33621  -0.00377   0.00000   0.01631   0.01616   0.35238
    D7       -0.65614   0.00894   0.00000   0.01248   0.01234  -0.64380
    D8       -1.59959  -0.01025   0.00000  -0.03530  -0.03484  -1.63443
    D9        2.47743   0.00820   0.00000   0.01759   0.01763   2.49506
   D10        0.47479  -0.00561   0.00000  -0.02051  -0.02065   0.45414
   D11       -1.55449   0.00204   0.00000  -0.00245  -0.00258  -1.55707
   D12       -0.48161   0.00353   0.00000   0.01065   0.01071  -0.47090
   D13       -2.48425  -0.01029   0.00000  -0.02745  -0.02757  -2.51182
   D14        1.76966  -0.00264   0.00000  -0.00939  -0.00950   1.76015
   D15       -0.01284  -0.00548   0.00000  -0.02019  -0.01985  -0.03269
   D16       -2.06943   0.00385   0.00000   0.01022   0.00959  -2.05984
   D17        2.12810  -0.00123   0.00000  -0.00457  -0.00438   2.12372
   D18       -2.15646  -0.00149   0.00000  -0.00027  -0.00049  -2.15695
   D19        2.08603  -0.00131   0.00000   0.00051   0.00089   2.08693
   D20       -0.03120   0.00097   0.00000   0.00215   0.00141  -0.02979
   D21        2.05577   0.00439   0.00000   0.01065   0.01124   2.06702
   D22       -0.89573  -0.00456   0.00000  -0.00879  -0.00902  -0.90475
   D23       -1.54003   0.00298   0.00000  -0.00996  -0.00994  -1.54997
   D24       -0.30127  -0.01133   0.00000  -0.02229  -0.02233  -0.32360
   D25        0.76721   0.01443   0.00000   0.03987   0.04039   0.80760
   D26        2.75973  -0.00133   0.00000   0.00278   0.00252   2.76225
   D27       -2.58465   0.00292   0.00000   0.00696   0.00714  -2.57751
   D28       -2.04159  -0.00123   0.00000   0.01387   0.01409  -2.02750
   D29        3.10772   0.00824   0.00000   0.01451   0.01471   3.12243
   D30        1.94002  -0.01043   0.00000  -0.03002  -0.03075   1.90927
   D31       -0.04754   0.00114   0.00000   0.00013   0.00025  -0.04729
   D32       -2.19112  -0.00046   0.00000  -0.00207  -0.00213  -2.19325
   D33       -2.04482  -0.00093   0.00000  -0.00280  -0.00297  -2.04780
   D34        0.03634  -0.00335   0.00000  -0.01221  -0.01240   0.02394
   D35        2.14000  -0.00085   0.00000  -0.00273  -0.00293   2.13707
         Item               Value     Threshold  Converged?
 Maximum Force            0.100523     0.000450     NO 
 RMS     Force            0.014480     0.000300     NO 
 Maximum Displacement     0.249770     0.001800     NO 
 RMS     Displacement     0.054976     0.001200     NO 
 Predicted change in Energy=-3.188632D-02
 GradGradGradGradGradGradGradGradGradGradGradGradGradGradGradGradGradGrad

                          Input orientation:                          
 ---------------------------------------------------------------------
 Center     Atomic      Atomic             Coordinates (Angstroms)
 Number     Number       Type             X           Y           Z
 ---------------------------------------------------------------------
      1         14           0       -1.931528   -0.045148   -0.137177
      2          8           0       -2.793407    1.328929   -0.379437
      3          8           0       -2.994479   -1.299973   -0.113570
      4          8           0       -0.641604   -0.334940   -1.109880
      5         40           0        0.698425    0.023745    0.461448
      6          1           0       -3.586683    1.236941   -0.917649
      7          1           0       -2.623455   -2.143562   -0.397136
      8          8           0       -1.186963    0.182770    1.359997
      9          1           0       -1.339623    1.031020    1.805607
     10          8           0        0.814177   -1.481324    1.740669
     11          1           0        0.311656   -1.689139    2.533612
     12          8           0        0.559431    1.863750    1.276185
     13          1           0        1.239045    2.547509    1.272993
     14          8           0        2.482315    0.040886   -0.383217
     15          1           0        3.329952   -0.411075   -0.396602
 ---------------------------------------------------------------------
                    Distance matrix (angstroms):
                    1          2          3          4          5
     1  Si   0.000000
     2  O    1.640004   0.000000
     3  O    1.644691   2.649952   0.000000
     4  O    1.641351   2.816427   2.731290   0.000000
     5  Zr   2.698101   3.821450   3.964898   2.096045   0.000000
     6  H    2.234374   0.963027   2.726386   3.343838   4.662178
     7  H    2.224788   3.476693   0.964215   2.776122   4.058235
     8  O    1.687558   2.630584   2.763520   2.581808   2.094604
     9  H    2.298456   2.641336   3.443156   3.294411   2.641023
    10  O    3.623231   5.040539   4.239923   3.399871   1.978646
    11  H    3.855864   5.218812   4.253181   4.002198   2.716141
    12  O    3.441854   3.777386   4.956899   3.459773   2.017110
    13  H    4.331626   4.525056   5.886290   4.186101   2.705598
    14  O    4.421532   5.430682   5.644988   3.229265   1.973833
    15  H    5.280566   6.365802   6.392861   4.035817   2.801830
                    6          7          8          9         10
     6  H    0.000000
     7  H    3.553385   0.000000
     8  O    3.472406   3.250053   0.000000
     9  H    3.536638   4.071642   0.970258   0.000000
    10  O    5.815771   4.101960   2.630339   3.309825   0.000000
    11  H    5.972452   4.172608   2.669695   3.264349   0.961495
    12  O    4.732448   5.384173   2.425409   2.140124   3.386763
    13  H    5.459318   6.301935   3.388963   3.038576   4.078079
    14  O    6.208776   5.553458   4.064790   4.514257   3.100113
    15  H    7.129326   6.200368   4.882705   5.360437   3.470228
                   11         12         13         14         15
    11  H    0.000000
    12  O    3.776974   0.000000
    13  H    4.516458   0.964060   0.000000
    14  O    4.026492   3.126328   3.251447   0.000000
    15  H    4.396557   3.955860   3.989067   0.960696   0.000000
 Stoichiometry    H6O7SiZr
 Framework group  C1[X(H6O7SiZr)]
 Deg. of freedom    39
 Full point group                 C1      NOp   1
 Largest Abelian subgroup         C1      NOp   1
 Largest concise Abelian subgroup C1      NOp   1
                         Standard orientation:                         
 ---------------------------------------------------------------------
 Center     Atomic      Atomic             Coordinates (Angstroms)
 Number     Number       Type             X           Y           Z
 ---------------------------------------------------------------------
      1         14           0       -1.717177   -0.033705   -0.171996
      2          8           0       -2.578508    1.360485   -0.234922
      3          8           0       -2.785489   -1.268515    0.025389
      4          8           0       -0.630457   -0.330222   -1.365793
      5         40           0        0.978479   -0.025099   -0.057502
      6          1           0       -3.457656    1.293126   -0.622196
      7          1           0       -2.490139   -2.113713   -0.332547
      8          8           0       -0.710015    0.153239    1.169097
      9          1           0       -0.761308    0.996076    1.647005
     10          8           0        1.290271   -1.554805    1.158157
     11          1           0        0.934603   -1.767323    2.025802
     12          8           0        1.028782    1.802272    0.795091
     13          1           0        1.711391    2.473061    0.678904
     14          8           0        2.580718   -0.026388   -1.210258
     15          1           0        3.402002   -0.493915   -1.383023
 ---------------------------------------------------------------------
 Rotational constants (GHZ):           1.7834605           0.7059404           0.6628986
 Basis read from rwf:  (5D, 7F)
 Pseudo-potential data read from rwf file.
 There are   178 symmetry adapted cartesian basis functions of A   symmetry.
 There are   168 symmetry adapted basis functions of A   symmetry.
   168 basis functions,   339 primitive gaussians,   178 cartesian basis functions
    44 alpha electrons       44 beta electrons
       nuclear repulsion energy       684.9059798101 Hartrees.
 NAtoms=   15 NActive=   15 NUniq=   15 SFac= 1.00D+00 NAtFMM=   60 NAOKFM=F Big=F
 Integral buffers will be    131072 words long.
 Raffenetti 2 integral format.
 Two-electron integral symmetry is turned on.
 One-electron integrals computed using PRISM.
   1 Symmetry operations used in ECPInt.
 ECPInt:  NShTT=    1770 NPrTT=   10201 LenC2=    1688 LenP2D=    6908.
 LDataN:  DoStor=T MaxTD1= 5 Len=  102
 NBasis=   168 RedAO= T EigKep=  5.95D-03  NBF=   168
 NBsUse=   168 1.00D-06 EigRej= -1.00D+00 NBFU=   168
 Defaulting to unpruned grid for atomic number  40.
 Initial guess from the checkpoint file:  "/localscratch/sarashs.33453156.0/Gau-3568.chk"
 B after Tr=     0.000000   -0.000000   -0.000000
         Rot=    0.999992    0.003410   -0.000062    0.002178 Ang=   0.46 deg.
 ExpMin= 2.43D-02 ExpMax= 1.61D+04 ExpMxC= 2.43D+03 IAcc=3 IRadAn=         5 AccDes= 0.00D+00
 Harris functional with IExCor=  402 and IRadAn=       5 diagonalized for initial guess.
 HarFok:  IExCor=  402 AccDes= 0.00D+00 IRadAn=         5 IDoV= 1 UseB2=F ITyADJ=14
 ICtDFT=  3500011 ScaDFX=  1.000000  1.000000  1.000000  1.000000
 Defaulting to unpruned grid for atomic number  40.
 FoFCou: FMM=F IPFlag=           0 FMFlag=      100000 FMFlg1=           0
         NFxFlg=           0 DoJE=T BraDBF=F KetDBF=T FulRan=T
         wScrn=  0.000000 ICntrl=       500 IOpCl=  0 I1Cent=   200000004 NGrid=           0
         NMat0=    1 NMatS0=      1 NMatT0=    0 NMatD0=    1 NMtDS0=    0 NMtDT0=    0
 Petite list used in FoFCou.
 Requested convergence on RMS density matrix=1.00D-08 within 128 cycles.
 Requested convergence on MAX density matrix=1.00D-06.
 Requested convergence on             energy=1.00D-06.
 No special actions if energy rises.
 Defaulting to unpruned grid for atomic number  40.
 Defaulting to unpruned grid for atomic number  40.
 Defaulting to unpruned grid for atomic number  40.
 Defaulting to unpruned grid for atomic number  40.
 Defaulting to unpruned grid for atomic number  40.
 Defaulting to unpruned grid for atomic number  40.
 Defaulting to unpruned grid for atomic number  40.
 Defaulting to unpruned grid for atomic number  40.
 Defaulting to unpruned grid for atomic number  40.
 Defaulting to unpruned grid for atomic number  40.
 Defaulting to unpruned grid for atomic number  40.
 Defaulting to unpruned grid for atomic number  40.
 Defaulting to unpruned grid for atomic number  40.
 Defaulting to unpruned grid for atomic number  40.
 Defaulting to unpruned grid for atomic number  40.
 Defaulting to unpruned grid for atomic number  40.
 SCF Done:  E(RB3LYP) =  -866.656309627     A.U. after   11 cycles
            NFock= 11  Conv=0.90D-08     -V/T= 2.0441
   1 Symmetry operations used in ECPInt.
 ECPInt:  NShTT=    1770 NPrTT=   10201 LenC2=    1688 LenP2D=    6908.
 LDataN:  DoStor=T MaxTD1= 6 Len=  172
 Calling FoFJK, ICntrl=      2127 FMM=F ISym2X=0 I1Cent= 0 IOpClX= 0 NMat=1 NMatS=1 NMatT=0.
 Defaulting to unpruned grid for atomic number  40.
 Defaulting to unpruned grid for atomic number  40.
 Defaulting to unpruned grid for atomic number  40.
 Defaulting to unpruned grid for atomic number  40.
 Defaulting to unpruned grid for atomic number  40.
 Defaulting to unpruned grid for atomic number  40.
 Defaulting to unpruned grid for atomic number  40.
 Defaulting to unpruned grid for atomic number  40.
 Defaulting to unpruned grid for atomic number  40.
 Defaulting to unpruned grid for atomic number  40.
 Defaulting to unpruned grid for atomic number  40.
 Defaulting to unpruned grid for atomic number  40.
 Defaulting to unpruned grid for atomic number  40.
 Defaulting to unpruned grid for atomic number  40.
 Defaulting to unpruned grid for atomic number  40.
 Defaulting to unpruned grid for atomic number  40.
 ***** Axes restored to original set *****
 -------------------------------------------------------------------
 Center     Atomic                   Forces (Hartrees/Bohr)
 Number     Number              X              Y              Z
 -------------------------------------------------------------------
      1       14          -0.035727757   -0.007747726   -0.034595277
      2        8           0.000707926    0.000412563    0.002034506
      3        8           0.000544509   -0.000284968    0.001648272
      4        8          -0.007058015    0.008385252    0.034352806
      5       40           0.082018528   -0.002347852   -0.015307824
      6        1           0.000065428   -0.000105754   -0.000132772
      7        1          -0.000242257   -0.000064956   -0.000323094
      8        8          -0.052828272    0.001383589    0.018680924
      9        1           0.001417078    0.002333879   -0.000692186
     10        8           0.007553882   -0.003144555   -0.004515928
     11        1          -0.000837078    0.001320227   -0.000252608
     12        8           0.004514258    0.002339410   -0.000483078
     13        1           0.001154841   -0.001587773   -0.001672795
     14        8          -0.001878397   -0.002551436    0.002222493
     15        1           0.000595324    0.001660099   -0.000963441
 -------------------------------------------------------------------
 Cartesian Forces:  Max     0.082018528 RMS     0.017701110

 GradGradGradGradGradGradGradGradGradGradGradGradGradGradGradGradGradGrad
 Berny optimization.
 Using GEDIIS/GDIIS optimizer.
 FormGI is forming the generalized inverse of G from B-inverse, IUseBI=4.
 Internal  Forces:  Max     0.052760313 RMS     0.008658762
 Search for a local minimum.
 Step number   2 out of a maximum of   91
 All quantities printed in internal units (Hartrees-Bohrs-Radians)
 Mixed Optimization -- RFO/linear search
 Update second derivatives using D2CorX and points    1    2
 DE= -2.79D-02 DEPred=-3.19D-02 R= 8.74D-01
 TightC=F SS=  1.41D+00  RLast= 3.16D-01 DXNew= 5.0454D-01 9.4822D-01
 Trust test= 8.74D-01 RLast= 3.16D-01 DXMaxT set to 5.05D-01
 ITU=  1  0
 Use linear search instead of GDIIS.
     Eigenvalues ---    0.00230   0.00230   0.00230   0.02006   0.02306
     Eigenvalues ---    0.03732   0.03782   0.04928   0.05231   0.06480
     Eigenvalues ---    0.09619   0.11188   0.13167   0.13846   0.14434
     Eigenvalues ---    0.15401   0.15891   0.15966   0.16000   0.16000
     Eigenvalues ---    0.16000   0.17070   0.19564   0.20054   0.20492
     Eigenvalues ---    0.20984   0.22170   0.28938   0.33051   0.35763
     Eigenvalues ---    0.43296   0.43897   0.54413   0.54624   0.54687
     Eigenvalues ---    0.54845   0.54961   0.553481000.000001000.00000
     Eigenvalues --- 1000.000001000.000001000.000001000.000001000.00000
     Eigenvalues --- 1000.000001000.000001000.000001000.000001000.00000
     Eigenvalues --- 1000.000001000.000001000.000001000.000001000.00000
     Eigenvalues --- 1000.000001000.000001000.000001000.000001000.00000
     Eigenvalues --- 1000.000001000.000001000.000001000.000001000.00000
     Eigenvalues --- 1000.000001000.000001000.000001000.000001000.00000
     Eigenvalues --- 1000.000001000.000001000.000001000.000001000.00000
     Eigenvalues --- 1000.000001000.000001000.000001000.000001000.00000
     Eigenvalues --- 1000.00000
 RFO step:  Lambda=-1.03667072D-02 EMin= 2.29997613D-03
 Quartic linear search produced a step of  1.27360.
 Iteration  1 RMS(Cart)=  0.07348953 RMS(Int)=  0.01535648
 Iteration  2 RMS(Cart)=  0.01901228 RMS(Int)=  0.00106762
 Iteration  3 RMS(Cart)=  0.00020698 RMS(Int)=  0.00105398
 Iteration  4 RMS(Cart)=  0.00000020 RMS(Int)=  0.00105398
 Iteration  1 RMS(Cart)=  0.00002598 RMS(Int)=  0.00005256
 Iteration  2 RMS(Cart)=  0.00002185 RMS(Int)=  0.00005596
 Iteration  3 RMS(Cart)=  0.00001837 RMS(Int)=  0.00006336
 Iteration  4 RMS(Cart)=  0.00001545 RMS(Int)=  0.00007185
 Iteration  5 RMS(Cart)=  0.00001299 RMS(Int)=  0.00008008
 Iteration  6 RMS(Cart)=  0.00001092 RMS(Int)=  0.00008756
 Iteration  7 RMS(Cart)=  0.00000918 RMS(Int)=  0.00009415
 Iteration  8 RMS(Cart)=  0.00000772 RMS(Int)=  0.00009986
 Iteration  9 RMS(Cart)=  0.00000649 RMS(Int)=  0.00010476
 Iteration 10 RMS(Cart)=  0.00000546 RMS(Int)=  0.00010894
 Iteration 11 RMS(Cart)=  0.00000459 RMS(Int)=  0.00011249
 Iteration 12 RMS(Cart)=  0.00000386 RMS(Int)=  0.00011551
 Iteration 13 RMS(Cart)=  0.00000324 RMS(Int)=  0.00011806
 Iteration 14 RMS(Cart)=  0.00000273 RMS(Int)=  0.00012021
 Iteration 15 RMS(Cart)=  0.00000229 RMS(Int)=  0.00012203
 Iteration 16 RMS(Cart)=  0.00000193 RMS(Int)=  0.00012356
 Iteration 17 RMS(Cart)=  0.00000162 RMS(Int)=  0.00012485
 Iteration 18 RMS(Cart)=  0.00000136 RMS(Int)=  0.00012594
 Iteration 19 RMS(Cart)=  0.00000115 RMS(Int)=  0.00012686
 Iteration 20 RMS(Cart)=  0.00000096 RMS(Int)=  0.00012763
 Variable       Old X    -DE/DX   Delta X   Delta X   Delta X     New X
                                 (Linear)    (Quad)   (Total)
    R1        3.09916  -0.00043  -0.00513   0.00570   0.00057   3.09973
    R2        3.10802   0.00009  -0.00290   0.00491   0.00201   3.11003
    R3        3.10170  -0.01415   0.03099   0.00618   0.03604   3.13774
    R4        5.09867   0.03669   0.10605   0.07814   0.18441   5.28309
    R5        3.18902   0.00491  -0.00787   0.00347  -0.00486   3.18416
    R6        1.81986   0.00003   0.00019  -0.00018   0.00002   1.81988
    R7        1.82210   0.00006   0.00054  -0.00059  -0.00005   1.82205
    R8        3.96095  -0.00856   0.10923   0.09352   0.20262   4.16357
    R9        3.95823   0.05276   0.29961   0.05503   0.35565   4.31388
   R10        3.73910  -0.00130   0.02405  -0.05075  -0.02670   3.71240
   R11        3.81179  -0.00058   0.08322  -0.13276  -0.04955   3.76224
   R12        3.73000  -0.00173   0.04537  -0.08690  -0.04154   3.68847
   R13        1.83352   0.00150   0.01107  -0.01087   0.00020   1.83372
   R14        1.81696  -0.00006  -0.00235   0.00337   0.00103   1.81799
   R15        1.82181  -0.00031   0.00080  -0.00247  -0.00167   1.82014
   R16        1.81545  -0.00024   0.00025  -0.00136  -0.00111   1.81434
    A1        1.87729   0.00086  -0.00194   0.00075  -0.00242   1.87486
    A2        2.06394   0.00381  -0.00313  -0.00175  -0.00433   2.05961
    A3        2.12192  -0.00028  -0.00663   0.00256  -0.00335   2.11856
    A4        1.82323  -0.00335  -0.02476  -0.01856  -0.04411   1.77912
    A5        1.96245   0.00508  -0.00780  -0.00164  -0.00890   1.95355
    A6        2.27348  -0.00025   0.00970  -0.00463   0.00557   2.27905
    A7        1.95569  -0.00312  -0.03879   0.01141  -0.02760   1.92809
    A8        1.77508  -0.00473   0.07511   0.01015   0.08429   1.85938
    A9        2.02131  -0.00024  -0.00232   0.00037  -0.00195   2.01936
   A10        1.99830   0.00036  -0.00066   0.00572   0.00506   2.00335
   A11        1.59875   0.02176  -0.00002   0.00000  -0.00000   1.59875
   A12        1.75284   0.00418   0.02233   0.01684   0.03714   1.78998
   A13        1.61655   0.00508   0.03843   0.00534   0.04250   1.65906
   A14        2.47546  -0.00226  -0.00923  -0.01930  -0.02809   2.44737
   A15        1.32753  -0.01399  -0.02720  -0.02049  -0.04679   1.28074
   A16        1.97349  -0.00175  -0.00001  -0.00758  -0.00844   1.96505
   A17        1.99857  -0.00145   0.01691   0.00621   0.02241   2.02098
   A18        1.83224   0.00722  -0.00070  -0.00899  -0.00991   1.82233
   A19        1.40308   0.00808   0.02952   0.05341   0.08174   1.48482
   A20        1.26133   0.00770   0.06567  -0.01416   0.05018   1.31150
   A21        2.02280   0.00475   0.03722   0.01429   0.04764   2.07044
   A22        1.80328  -0.00424  -0.02637  -0.01847  -0.04467   1.75861
   A23        1.80000  -0.00482  -0.04125   0.01035  -0.02975   1.77025
   A24        2.04442   0.00238   0.01114  -0.01504  -0.00400   2.04042
   A25        1.98779   0.00005   0.00081  -0.01851  -0.01777   1.97003
   A26        2.30098  -0.00287  -0.01141  -0.02095  -0.03237   2.26862
   A27        2.21063  -0.00459  -0.01644  -0.03614  -0.05258   2.15805
   A28        2.49690   0.00379   0.02334   0.01100   0.03439   2.53129
   A29        3.15977  -0.00677  -0.02790  -0.02949  -0.05670   3.10307
   A30        3.05614  -0.00099   0.01177  -0.02356  -0.01267   3.04347
    D1       -0.55687  -0.00351  -0.00804  -0.00399  -0.01171  -0.56858
    D2        1.68856   0.00764  -0.02356  -0.00706  -0.02996   1.65860
    D3        2.72504  -0.00570  -0.01634   0.00520  -0.01090   2.71414
    D4       -2.63784   0.00137   0.05105  -0.00806   0.04176  -2.59608
    D5        2.65457   0.00300   0.00844  -0.00155   0.00665   2.66122
    D6        0.35238  -0.00688   0.02058   0.00148   0.02137   0.37374
    D7       -0.64380   0.00546   0.01571  -0.01096   0.00466  -0.63913
    D8       -1.63443  -0.00217  -0.04437  -0.01738  -0.06074  -1.69517
    D9        2.49506   0.00501   0.02245   0.03113   0.05416   2.54922
   D10        0.45414  -0.00163  -0.02630   0.01278  -0.01379   0.44034
   D11       -1.55707   0.00099  -0.00329  -0.00036  -0.00374  -1.56082
   D12       -0.47090   0.00218   0.01364   0.04193   0.05616  -0.41474
   D13       -2.51182  -0.00446  -0.03512   0.02358  -0.01180  -2.52362
   D14        1.76015  -0.00184  -0.01210   0.01044  -0.00174   1.75841
   D15       -0.03269  -0.00214  -0.02529  -0.03594  -0.05969  -0.09238
   D16       -2.05984   0.00029   0.01222  -0.03165  -0.02093  -2.08077
   D17        2.12372  -0.00142  -0.00557  -0.04114  -0.04679   2.07693
   D18       -2.15695  -0.00097  -0.00062   0.03454   0.03290  -2.12405
   D19        2.08693  -0.00055   0.00114   0.05567   0.05905   2.14598
   D20       -0.02979   0.00100   0.00179   0.05957   0.05768   0.02788
   D21        2.06702   0.00348   0.01432   0.03104   0.04774   2.11476
   D22       -0.90475  -0.00345  -0.01149  -0.01118  -0.02400  -0.92875
   D23       -1.54997   0.00474  -0.01266  -0.00954  -0.02188  -1.57185
   D24       -0.32360  -0.00643  -0.02844  -0.00290  -0.03158  -0.35518
   D25        0.80760   0.00571   0.05144   0.00726   0.06085   0.86845
   D26        2.76225  -0.00056   0.00321   0.01470   0.01701   2.77927
   D27       -2.57751   0.00272   0.00909   0.02794   0.03814  -2.53937
   D28       -2.02750  -0.00441   0.01795   0.01506   0.03440  -1.99309
   D29        3.12243   0.00704   0.01874   0.05316   0.07130  -3.08946
   D30        1.90927  -0.00531  -0.03916   0.00406  -0.03779   1.87148
   D31       -0.04729   0.00063   0.00032   0.01338   0.01447  -0.03281
   D32       -2.19325  -0.00028  -0.00272  -0.02193  -0.02540  -2.21865
   D33       -2.04780  -0.00127  -0.00379  -0.02420  -0.02879  -2.07658
   D34        0.02394  -0.00207  -0.01579  -0.04443  -0.06012  -0.03618
   D35        2.13707  -0.00058  -0.00373  -0.03193  -0.03679   2.10027
         Item               Value     Threshold  Converged?
 Maximum Force            0.044401     0.000450     NO 
 RMS     Force            0.006312     0.000300     NO 
 Maximum Displacement     0.351387     0.001800     NO 
 RMS     Displacement     0.085798     0.001200     NO 
 Predicted change in Energy=-5.193540D-03
 GradGradGradGradGradGradGradGradGradGradGradGradGradGradGradGradGradGrad

                          Input orientation:                          
 ---------------------------------------------------------------------
 Center     Atomic      Atomic             Coordinates (Angstroms)
 Number     Number       Type             X           Y           Z
 ---------------------------------------------------------------------
      1         14           0       -1.975461   -0.048479   -0.143843
      2          8           0       -2.834680    1.324281   -0.404373
      3          8           0       -3.041670   -1.302088   -0.130601
      4          8           0       -0.673484   -0.352113   -1.128558
      5         40           0        0.739816    0.036625    0.516389
      6          1           0       -3.614206    1.229601   -0.961881
      7          1           0       -2.671067   -2.150741   -0.399115
      8          8           0       -1.356955    0.215450    1.401140
      9          1           0       -1.525569    1.084216    1.799165
     10          8           0        0.934318   -1.501101    1.723410
     11          1           0        0.442891   -1.728912    2.518470
     12          8           0        0.671917    1.864203    1.303153
     13          1           0        1.393331    2.499303    1.240591
     14          8           0        2.492673    0.050044   -0.342120
     15          1           0        3.355406   -0.369901   -0.375985
 ---------------------------------------------------------------------
                    Distance matrix (angstroms):
                    1          2          3          4          5
     1  Si   0.000000
     2  O    1.640305   0.000000
     3  O    1.645756   2.648699   0.000000
     4  O    1.660421   2.829400   2.739831   0.000000
     5  Zr   2.795689   3.909332   4.063297   2.203266   0.000000
     6  H    2.233418   0.963037   2.725485   3.343268   4.750366
     7  H    2.229022   3.478876   0.964188   2.785227   4.154135
     8  O    1.684987   2.583225   2.736315   2.681162   2.282807
     9  H    2.293618   2.574293   3.423012   3.370556   2.806230
    10  O    3.750141   5.168712   4.391520   3.469715   1.964519
    11  H    3.969911   5.348595   4.397945   4.054957   2.685817
    12  O    3.572220   3.937433   5.086430   3.554627   1.990891
    13  H    4.444840   4.686433   5.999998   4.244427   2.648836
    14  O    4.473616   5.477978   5.701049   3.287061   1.951852
    15  H    5.345591   6.417805   6.469295   4.098614   2.793369
                    6          7          8          9         10
     6  H    0.000000
     7  H    3.554283   0.000000
     8  O    3.421630   3.250641   0.000000
     9  H    3.465100   4.075481   0.970365   0.000000
    10  O    5.946141   4.233904   2.881031   3.569404   0.000000
    11  H    6.109474   4.288003   2.875485   3.507979   0.962039
    12  O    4.889166   5.494818   2.616162   2.383978   3.401579
    13  H    5.615910   6.389904   3.578523   3.291573   4.055495
    14  O    6.250554   5.613459   4.229178   4.669141   3.016775
    15  H    7.174759   6.284132   5.070223   5.538019   3.398344
                   11         12         13         14         15
    11  H    0.000000
    12  O    3.799989   0.000000
    13  H    4.518198   0.963174   0.000000
    14  O    3.943256   3.051761   3.116472   0.000000
    15  H    4.325220   3.874511   3.833457   0.960109   0.000000
 Stoichiometry    H6O7SiZr
 Framework group  C1[X(H6O7SiZr)]
 Deg. of freedom    39
 Full point group                 C1      NOp   1
 Largest Abelian subgroup         C1      NOp   1
 Largest concise Abelian subgroup C1      NOp   1
                         Standard orientation:                         
 ---------------------------------------------------------------------
 Center     Atomic      Atomic             Coordinates (Angstroms)
 Number     Number       Type             X           Y           Z
 ---------------------------------------------------------------------
      1         14           0       -1.773416   -0.039733   -0.167906
      2          8           0       -2.633691    1.353199   -0.269249
      3          8           0       -2.846896   -1.266501    0.058354
      4          8           0       -0.691726   -0.378138   -1.381341
      5         40           0        1.019285   -0.020181   -0.040189
      6          1           0       -3.507586    1.276385   -0.666550
      7          1           0       -2.554889   -2.124784   -0.269885
      8          8           0       -0.864374    0.212880    1.228164
      9          1           0       -0.932907    1.086608    1.644712
     10          8           0        1.404673   -1.559053    1.118553
     11          1           0        1.069320   -1.772513    1.994620
     12          8           0        1.146851    1.810594    0.731586
     13          1           0        1.857845    2.427458    0.527450
     14          8           0        2.575100   -0.052468   -1.218375
     15          1           0        3.405131   -0.493747   -1.413646
 ---------------------------------------------------------------------
 Rotational constants (GHZ):           1.7747165           0.6697652           0.6301139
 Basis read from rwf:  (5D, 7F)
 Pseudo-potential data read from rwf file.
 There are   178 symmetry adapted cartesian basis functions of A   symmetry.
 There are   168 symmetry adapted basis functions of A   symmetry.
   168 basis functions,   339 primitive gaussians,   178 cartesian basis functions
    44 alpha electrons       44 beta electrons
       nuclear repulsion energy       674.2515331142 Hartrees.
 NAtoms=   15 NActive=   15 NUniq=   15 SFac= 1.00D+00 NAtFMM=   60 NAOKFM=F Big=F
 Integral buffers will be    131072 words long.
 Raffenetti 2 integral format.
 Two-electron integral symmetry is turned on.
 One-electron integrals computed using PRISM.
   1 Symmetry operations used in ECPInt.
 ECPInt:  NShTT=    1770 NPrTT=   10201 LenC2=    1675 LenP2D=    6843.
 LDataN:  DoStor=T MaxTD1= 5 Len=  102
 NBasis=   168 RedAO= T EigKep=  6.40D-03  NBF=   168
 NBsUse=   168 1.00D-06 EigRej= -1.00D+00 NBFU=   168
 Defaulting to unpruned grid for atomic number  40.
 Initial guess from the checkpoint file:  "/localscratch/sarashs.33453156.0/Gau-3568.chk"
 B after Tr=    -0.000000    0.000000    0.000000
         Rot=    0.999947    0.009735   -0.003324    0.000632 Ang=   1.18 deg.
 ExpMin= 2.43D-02 ExpMax= 1.61D+04 ExpMxC= 2.43D+03 IAcc=3 IRadAn=         5 AccDes= 0.00D+00
 Harris functional with IExCor=  402 and IRadAn=       5 diagonalized for initial guess.
 HarFok:  IExCor=  402 AccDes= 0.00D+00 IRadAn=         5 IDoV= 1 UseB2=F ITyADJ=14
 ICtDFT=  3500011 ScaDFX=  1.000000  1.000000  1.000000  1.000000
 Defaulting to unpruned grid for atomic number  40.
 FoFCou: FMM=F IPFlag=           0 FMFlag=      100000 FMFlg1=           0
         NFxFlg=           0 DoJE=T BraDBF=F KetDBF=T FulRan=T
         wScrn=  0.000000 ICntrl=       500 IOpCl=  0 I1Cent=   200000004 NGrid=           0
         NMat0=    1 NMatS0=      1 NMatT0=    0 NMatD0=    1 NMtDS0=    0 NMtDT0=    0
 Petite list used in FoFCou.
 Requested convergence on RMS density matrix=1.00D-08 within 128 cycles.
 Requested convergence on MAX density matrix=1.00D-06.
 Requested convergence on             energy=1.00D-06.
 No special actions if energy rises.
 Defaulting to unpruned grid for atomic number  40.
 Defaulting to unpruned grid for atomic number  40.
 Defaulting to unpruned grid for atomic number  40.
 Defaulting to unpruned grid for atomic number  40.
 Defaulting to unpruned grid for atomic number  40.
 Defaulting to unpruned grid for atomic number  40.
 Defaulting to unpruned grid for atomic number  40.
 Defaulting to unpruned grid for atomic number  40.
 Defaulting to unpruned grid for atomic number  40.
 Defaulting to unpruned grid for atomic number  40.
 Defaulting to unpruned grid for atomic number  40.
 Defaulting to unpruned grid for atomic number  40.
 Defaulting to unpruned grid for atomic number  40.
 Defaulting to unpruned grid for atomic number  40.
 Defaulting to unpruned grid for atomic number  40.
 Defaulting to unpruned grid for atomic number  40.
 SCF Done:  E(RB3LYP) =  -866.669085901     A.U. after   11 cycles
            NFock= 11  Conv=0.72D-08     -V/T= 2.0445
   1 Symmetry operations used in ECPInt.
 ECPInt:  NShTT=    1770 NPrTT=   10201 LenC2=    1675 LenP2D=    6843.
 LDataN:  DoStor=T MaxTD1= 6 Len=  172
 Calling FoFJK, ICntrl=      2127 FMM=F ISym2X=0 I1Cent= 0 IOpClX= 0 NMat=1 NMatS=1 NMatT=0.
 Defaulting to unpruned grid for atomic number  40.
 Defaulting to unpruned grid for atomic number  40.
 Defaulting to unpruned grid for atomic number  40.
 Defaulting to unpruned grid for atomic number  40.
 Defaulting to unpruned grid for atomic number  40.
 Defaulting to unpruned grid for atomic number  40.
 Defaulting to unpruned grid for atomic number  40.
 Defaulting to unpruned grid for atomic number  40.
 Defaulting to unpruned grid for atomic number  40.
 Defaulting to unpruned grid for atomic number  40.
 Defaulting to unpruned grid for atomic number  40.
 Defaulting to unpruned grid for atomic number  40.
 Defaulting to unpruned grid for atomic number  40.
 Defaulting to unpruned grid for atomic number  40.
 Defaulting to unpruned grid for atomic number  40.
 Defaulting to unpruned grid for atomic number  40.
 ***** Axes restored to original set *****
 -------------------------------------------------------------------
 Center     Atomic                   Forces (Hartrees/Bohr)
 Number     Number              X              Y              Z
 -------------------------------------------------------------------
      1       14          -0.020516329   -0.009136912   -0.038950796
      2        8          -0.001995821    0.002664025   -0.000797129
      3        8          -0.000192400   -0.002112117    0.001385612
      4        8          -0.001995139    0.015181100    0.058900198
      5       40           0.024163654   -0.004571398   -0.024888397
      6        1           0.000517423    0.000237578   -0.000521338
      7        1          -0.000274886    0.000600035   -0.000832811
      8        8          -0.001652276   -0.001985930    0.004913669
      9        1           0.000778774   -0.000524159   -0.002533795
     10        8          -0.000161523   -0.001648650    0.001457919
     11        1          -0.000089847   -0.000206899    0.001319969
     12        8           0.000053355    0.000481973    0.001802741
     13        1           0.001005924    0.000898937   -0.000336063
     14        8           0.000059666   -0.000105253   -0.000061402
     15        1           0.000299425    0.000227670   -0.000858376
 -------------------------------------------------------------------
 Cartesian Forces:  Max     0.058900198 RMS     0.012490365

 GradGradGradGradGradGradGradGradGradGradGradGradGradGradGradGradGradGrad
 Berny optimization.
 Using GEDIIS/GDIIS optimizer.
 FormGI is forming the generalized inverse of G from B-inverse, IUseBI=4.
 Internal  Forces:  Max     0.026765552 RMS     0.006594613
 Search for a local minimum.
 Step number   3 out of a maximum of   91
 All quantities printed in internal units (Hartrees-Bohrs-Radians)
 Mixed Optimization -- RFO/linear search
 Update second derivatives using D2CorX and points    2    3
 DE= -1.28D-02 DEPred=-5.19D-03 R= 2.46D+00
 TightC=F SS=  1.41D+00  RLast= 5.47D-01 DXNew= 8.4853D-01 1.6415D+00
 Trust test= 2.46D+00 RLast= 5.47D-01 DXMaxT set to 8.49D-01
 ITU=  1  1  0
 Use linear search instead of GDIIS.
     Eigenvalues ---    0.00230   0.00230   0.00230   0.02027   0.02396
     Eigenvalues ---    0.03727   0.03780   0.05126   0.05401   0.06278
     Eigenvalues ---    0.08979   0.10023   0.12576   0.13400   0.14030
     Eigenvalues ---    0.15005   0.15784   0.16000   0.16000   0.16001
     Eigenvalues ---    0.16025   0.16267   0.19566   0.20002   0.20293
     Eigenvalues ---    0.21048   0.22079   0.25047   0.33417   0.36386
     Eigenvalues ---    0.43302   0.43966   0.54421   0.54626   0.54693
     Eigenvalues ---    0.54845   0.54970   0.553481000.000001000.00000
     Eigenvalues --- 1000.000001000.000001000.000001000.000001000.00000
     Eigenvalues --- 1000.000001000.000001000.000001000.000001000.00000
     Eigenvalues --- 1000.000001000.000001000.000001000.000001000.00000
     Eigenvalues --- 1000.000001000.000001000.000001000.000001000.00000
     Eigenvalues --- 1000.000001000.000001000.000001000.000001000.00000
     Eigenvalues --- 1000.000001000.000001000.000001000.000001000.00000
     Eigenvalues --- 1000.000001000.000001000.000001000.000001000.00000
     Eigenvalues --- 1000.000001000.000001000.000001000.000001000.00000
     Eigenvalues --- 1000.00000
 RFO step:  Lambda=-5.46879151D-04 EMin= 2.29888363D-03
 Quartic linear search produced a step of -0.00701.
 Iteration  1 RMS(Cart)=  0.01739560 RMS(Int)=  0.00026057
 Iteration  2 RMS(Cart)=  0.00024434 RMS(Int)=  0.00004262
 Iteration  3 RMS(Cart)=  0.00000012 RMS(Int)=  0.00004262
 Iteration  1 RMS(Cart)=  0.00000299 RMS(Int)=  0.00000602
 Iteration  2 RMS(Cart)=  0.00000252 RMS(Int)=  0.00000641
 Iteration  3 RMS(Cart)=  0.00000211 RMS(Int)=  0.00000726
 Iteration  4 RMS(Cart)=  0.00000178 RMS(Int)=  0.00000823
 Iteration  5 RMS(Cart)=  0.00000149 RMS(Int)=  0.00000917
 Iteration  6 RMS(Cart)=  0.00000125 RMS(Int)=  0.00001003
 Iteration  7 RMS(Cart)=  0.00000105 RMS(Int)=  0.00001078
 Iteration  8 RMS(Cart)=  0.00000088 RMS(Int)=  0.00001143
 Variable       Old X    -DE/DX   Delta X   Delta X   Delta X     New X
[...]
 ! A19   A(8,5,10)              93.9924         -DE/DX =    0.0023              !
 ! A20   A(8,5,12)              75.6389         -DE/DX =    0.0015              !
 ! A21   A(10,5,12)            112.3827         -DE/DX =   -0.0001              !
 ! A22   A(10,5,14)            105.2187         -DE/DX =    0.0006              !
 ! A23   A(12,5,14)            100.8494         -DE/DX =   -0.0008              !
 ! A24   A(1,8,9)              115.9355         -DE/DX =    0.0021              !
 ! A25   A(5,8,9)              108.9953         -DE/DX =    0.0026              !
 ! A26   A(5,10,11)            132.2306         -DE/DX =    0.0                 !
 ! A27   A(5,12,13)            123.5451         -DE/DX =    0.0                 !
 ! A28   A(5,14,15)            144.3658         -DE/DX =   -0.0001              !
 ! A29   L(8,5,14,4,-1)        167.2808         -DE/DX =   -0.0036              !
 ! A30   L(8,5,14,4,-2)        164.4087         -DE/DX =   -0.0016              !
 ! D1    D(3,1,2,6)            -49.4248         -DE/DX =   -0.002               !
 ! D2    D(4,1,2,6)             80.7721         -DE/DX =    0.01                !
 ! D3    D(5,1,2,6)            137.8375         -DE/DX =   -0.0025              !
 ! D4    D(8,1,2,6)           -166.2899         -DE/DX =   -0.0055              !
 ! D5    D(2,1,3,7)            150.3132         -DE/DX =    0.0007              !
 ! D6    D(4,1,3,7)             17.3084         -DE/DX =   -0.0064              !
 ! D7    D(5,1,3,7)            -40.8889         -DE/DX =    0.0027              !
 ! D8    D(8,1,3,7)            -99.853          -DE/DX =    0.003               !
 ! D9    D(2,1,5,10)           151.399          -DE/DX =    0.0015              !
 ! D10   D(2,1,5,12)            33.3504         -DE/DX =    0.0006              !
 ! D11   D(2,1,5,14)           -74.8744         -DE/DX =   -0.0003              !
 ! D12   D(3,1,5,10)           -17.3486         -DE/DX =   -0.0001              !
 ! D13   D(3,1,5,12)          -135.3972         -DE/DX =   -0.0011              !
 ! D14   D(3,1,5,14)           116.378          -DE/DX =   -0.0019              !
 ! D15   D(2,1,8,9)              4.5674         -DE/DX =    0.0009              !
 ! D16   D(3,1,8,9)           -110.0388         -DE/DX =    0.0003              !
 ! D17   D(4,1,8,9)            127.6685         -DE/DX =   -0.0034              !
 ! D18   D(4,5,8,9)           -129.8265         -DE/DX =    0.001               !
 ! D19   D(10,5,8,9)           116.4262         -DE/DX =   -0.0004              !
 ! D20   D(12,5,8,9)             4.3301         -DE/DX =    0.0004              !
 ! D21   D(9,8,14,15)          -90.3233         -DE/DX =    0.0007              !
 ! D22   D(1,5,10,11)          -79.4328         -DE/DX =   -0.0025              !
 ! D23   D(4,5,10,11)         -118.7686         -DE/DX =    0.0057              !
 ! D24   D(8,5,10,11)          -47.1606         -DE/DX =   -0.0025              !
 ! D25   D(12,5,10,11)          28.9439         -DE/DX =    0.0                 !
 ! D26   D(14,5,10,11)         137.7881         -DE/DX =   -0.0007              !
 ! D27   D(1,5,12,13)         -137.8191         -DE/DX =    0.0002              !
 ! D28   D(4,5,12,13)         -113.8154         -DE/DX =   -0.0039              !
 ! D29   D(8,5,12,13)         -169.1807         -DE/DX =    0.0034              !
 ! D30   D(10,5,12,13)         102.4073         -DE/DX =    0.0002              !
 ! D31   D(14,5,12,13)          -9.1842         -DE/DX =    0.0                 !
 ! D32   D(1,5,14,15)            9.115          -DE/DX =    0.0024              !
 ! D33   D(4,5,14,15)           29.6324         -DE/DX =   -0.0032              !
 ! D34   D(10,5,14,15)         146.1878         -DE/DX =    0.0002              !
 ! D35   D(12,5,14,15)         -96.8147         -DE/DX =    0.0                 !
 --------------------------------------------------------------------------------
 GradGradGradGradGradGradGradGradGradGradGradGradGradGradGradGradGradGrad

                          Input orientation:                          
 ---------------------------------------------------------------------
 Center     Atomic      Atomic             Coordinates (Angstroms)
 Number     Number       Type             X           Y           Z
 ---------------------------------------------------------------------
      1         14           0       -1.942679   -0.169467   -0.181046
      2          8           0       -2.393664    1.356153   -0.610250
      3          8           0       -3.267789   -1.142940   -0.267401
      4          8           0       -0.622813   -0.818157   -0.899871
      5         40           0        0.697678   -0.113226    0.746809
      6          1           0       -2.897157    1.436800   -1.427210
      7          1           0       -3.067118   -2.061384   -0.481439
      8          8           0       -1.467344    0.082125    1.426375
      9          1           0       -1.609254    0.976362    1.775999
     10          8           0        1.129766   -1.502709    2.064708
     11          1           0        0.958567   -1.574176    3.009449
     12          8           0        0.597586    1.703826    1.563830
     13          1           0        1.298372    2.361639    1.487559
     14          8           0        2.300413    0.066152   -0.352843
     15          1           0        2.622696    0.249391   -1.238829
 ---------------------------------------------------------------------
                    Distance matrix (angstroms):
                    1          2          3          4          5
     1  Si   0.000000
     2  O    1.647762   0.000000
     3  O    1.646518   2.669664   0.000000
     4  O    1.636935   2.819117   2.738868   0.000000
     5  Zr   2.799208   3.681994   4.220647   2.225350   0.000000
     6  H    2.245895   0.963033   2.852644   3.245852   4.477921
     7  H    2.221249   3.485641   0.964169   2.774045   4.413344
     8  O    1.695006   2.574696   2.758851   2.633470   2.277563
     9  H    2.292187   2.540418   3.379003   3.369517   2.751067
    10  O    4.032477   5.267167   4.990656   3.511250   1.963217
    11  H    4.535383   5.738162   5.365239   4.284286   2.705915
    12  O    3.606490   3.714173   5.137958   3.730898   1.994798
    13  H    4.437922   4.363821   6.017622   4.416093   2.652263
    14  O    4.253100   4.874907   5.698603   3.102659   1.951966
    15  H    4.704998   5.175317   6.130259   3.433348   2.789255
                    6          7          8          9         10
     6  H    0.000000
     7  H    3.627762   0.000000
     8  O    3.467342   3.285371   0.000000
     9  H    3.482994   4.055773   0.970585   0.000000
    10  O    6.086897   4.940528   3.108721   3.705587   0.000000
    11  H    6.604281   5.350683   3.336840   3.823656   0.962783
    12  O    4.607695   5.638261   2.629211   2.333316   3.288763
    13  H    5.191692   6.519017   3.584566   3.233648   3.910846
    14  O    5.481576   5.775235   4.166758   4.543781   3.110674
    15  H    5.649266   6.187674   4.884642   5.246626   4.026420
                   11         12         13         14         15
    11  H    0.000000
    12  O    3.600753   0.000000
    13  H    4.233469   0.964176   0.000000
    14  O    3.974447   3.042241   3.108123   0.000000
    15  H    4.913511   3.751180   3.694404   0.960424   0.000000
 Stoichiometry    H6O7SiZr
 Framework group  C1[X(H6O7SiZr)]
 Deg. of freedom    39
 Full point group                 C1      NOp   1
 Largest Abelian subgroup         C1      NOp   1
 Largest concise Abelian subgroup C1      NOp   1
                         Standard orientation:                         
 ---------------------------------------------------------------------
 Center     Atomic      Atomic             Coordinates (Angstroms)
 Number     Number       Type             X           Y           Z
 ---------------------------------------------------------------------
      1         14           0       -1.787051   -0.046433   -0.128085
      2          8           0       -2.317520    1.513090   -0.087969
      3          8           0       -3.095025   -1.039692   -0.011200
      4          8           0       -0.755131   -0.483169   -1.321383
      5         40           0        1.010549   -0.061128   -0.034357
      6          1           0       -3.040898    1.731723   -0.684925
      7          1           0       -2.984662   -1.888330   -0.455334
      8          8           0       -0.847761   -0.096929    1.281962
      9          1           0       -0.861928    0.703759    1.830354
     10          8           0        1.791541   -1.663566    0.788120
     11          1           0        1.909708   -1.927407    1.706475
     12          8           0        1.193270    1.552877    1.123581
     13          1           0        1.851137    2.242276    0.976701
     14          8           0        2.213641    0.400454   -1.500537
     15          1           0        2.259260    0.768653   -2.386405
 ---------------------------------------------------------------------
 Rotational constants (GHZ):           1.7142816           0.6660239           0.6442456

 **********************************************************************

            Population analysis using the SCF Density.

 **********************************************************************

 Orbital symmetries:
       Occupied  (A) (A) (A) (A) (A) (A) (A) (A) (A) (A) (A) (A)
                 (A) (A) (A) (A) (A) (A) (A) (A) (A) (A) (A) (A)
                 (A) (A) (A) (A) (A) (A) (A) (A) (A) (A) (A) (A)
                 (A) (A) (A) (A) (A) (A) (A) (A)
       Virtual   (A) (A) (A) (A) (A) (A) (A) (A) (A) (A) (A) (A)
                 (A) (A) (A) (A) (A) (A) (A) (A) (A) (A) (A) (A)
                 (A) (A) (A) (A) (A) (A) (A) (A) (A) (A) (A) (A)
                 (A) (A) (A) (A) (A) (A) (A) (A) (A) (A) (A) (A)
                 (A) (A) (A) (A) (A) (A) (A) (A) (A) (A) (A) (A)
                 (A) (A) (A) (A) (A) (A) (A) (A) (A) (A) (A) (A)
                 (A) (A) (A) (A) (A) (A) (A) (A) (A) (A) (A) (A)
                 (A) (A) (A) (A) (A) (A) (A) (A) (A) (A) (A) (A)
                 (A) (A) (A) (A) (A) (A) (A) (A) (A) (A) (A) (A)
                 (A) (A) (A) (A) (A) (A) (A) (A) (A) (A) (A) (A)
                 (A) (A) (A) (A)
 The electronic state is 1-A.
 Alpha  occ. eigenvalues --  -66.19894 -19.19495 -19.15550 -19.15281 -19.13566
 Alpha  occ. eigenvalues --  -19.13542 -19.13496 -19.12332  -5.34380  -3.70438
 Alpha  occ. eigenvalues --   -3.70274  -3.70175  -2.06456  -1.27442  -1.26920
 Alpha  occ. eigenvalues --   -1.26319  -1.05561  -1.01600  -1.00078  -0.95388
 Alpha  occ. eigenvalues --   -0.94711  -0.94378  -0.92433  -0.59434  -0.55015
 Alpha  occ. eigenvalues --   -0.52274  -0.48635  -0.47629  -0.46864  -0.42529
 Alpha  occ. eigenvalues --   -0.41899  -0.40533  -0.38199  -0.35822  -0.34799
 Alpha  occ. eigenvalues --   -0.34427  -0.34015  -0.33770  -0.33065  -0.31624
 Alpha  occ. eigenvalues --   -0.30800  -0.30597  -0.30158  -0.29360
 Alpha virt. eigenvalues --   -0.02729  -0.02215  -0.00563   0.00560   0.00828
 Alpha virt. eigenvalues --    0.01542   0.02210   0.02791   0.05620   0.08386
 Alpha virt. eigenvalues --    0.09392   0.11967   0.14147   0.14767   0.16596
 Alpha virt. eigenvalues --    0.16867   0.17952   0.19035   0.19724   0.22792
 Alpha virt. eigenvalues --    0.24331   0.24587   0.25459   0.26139   0.28045
 Alpha virt. eigenvalues --    0.29430   0.31151   0.33415   0.36232   0.39562
 Alpha virt. eigenvalues --    0.41398   0.55038   0.61140   0.74802   0.79062
 Alpha virt. eigenvalues --    0.81344   0.83166   0.84211   0.87170   0.89749
 Alpha virt. eigenvalues --    0.90270   0.91426   0.92768   0.93310   0.96932
 Alpha virt. eigenvalues --    0.98004   0.98672   0.99695   1.01861   1.03656
 Alpha virt. eigenvalues --    1.06002   1.06332   1.07577   1.08625   1.10783
 Alpha virt. eigenvalues --    1.13801   1.15583   1.18885   1.20222   1.21450
 Alpha virt. eigenvalues --    1.23462   1.26783   1.31267   1.41679   1.46557
 Alpha virt. eigenvalues --    1.48109   1.51146   1.52512   1.53999   1.56500
 Alpha virt. eigenvalues --    1.57150   1.58045   1.59056   1.61312   1.62164
 Alpha virt. eigenvalues --    1.63503   1.66718   1.68370   1.68952   1.71432
 Alpha virt. eigenvalues --    1.74166   1.75128   1.77853   1.80625   1.81404
 Alpha virt. eigenvalues --    1.82167   1.84139   1.84409   1.87209   1.87438
 Alpha virt. eigenvalues --    1.89990   1.94539   2.00543   2.08102   2.14240
 Alpha virt. eigenvalues --    2.32095   2.35701   2.36645   2.37396   2.38392
 Alpha virt. eigenvalues --    2.39684   2.42040   2.54363   2.58480   2.61349
 Alpha virt. eigenvalues --    2.62593   2.63158   2.64073   2.64532   2.64673
 Alpha virt. eigenvalues --    2.64917   2.65392   2.66022   2.66177   2.70947
 Alpha virt. eigenvalues --    2.76754   2.80205   3.39437   3.41565   3.43160
 Alpha virt. eigenvalues --    3.44472   3.45236   3.46765   4.75912
          Condensed to atoms (all electrons):
               1          2          3          4          5          6
     1  Si  11.661461   0.357712   0.391138   0.358356  -0.112062  -0.023630
     2  O    0.357712   7.983969  -0.018723  -0.012550   0.017091   0.305734
     3  O    0.391138  -0.018723   7.939082  -0.017497   0.003668  -0.001021
     4  O    0.358356  -0.012550  -0.017497   8.200268   0.204176  -0.000657
     5  Zr  -0.112062   0.017091   0.003668   0.204176   9.835488  -0.001137
     6  H   -0.023630   0.305734  -0.001021  -0.000657  -0.001137   0.382238
     7  H   -0.017451   0.000350   0.301396   0.000293  -0.003404  -0.000044
     8  O    0.239024  -0.024131  -0.013989  -0.025608   0.068263   0.000862
     9  H   -0.009775   0.001995  -0.000409   0.000386  -0.009662   0.000057
    10  O   -0.007132  -0.000000   0.000001   0.000068   0.220801  -0.000000
    11  H    0.000329  -0.000000   0.000000   0.000013  -0.018565   0.000000
    12  O   -0.013798  -0.000253  -0.000001   0.000044   0.235559   0.000011
    13  H    0.000795  -0.000026   0.000000   0.000016  -0.021017  -0.000000
    14  O   -0.004976   0.000001  -0.000000  -0.001189   0.215641   0.000001
    15  H    0.000042   0.000000  -0.000000  -0.000614  -0.017170   0.000000
               7          8          9         10         11         12
     1  Si  -0.017451   0.239024  -0.009775  -0.007132   0.000329  -0.013798
     2  O    0.000350  -0.024131   0.001995  -0.000000  -0.000000  -0.000253
     3  O    0.301396  -0.013989  -0.000409   0.000001   0.000000  -0.000001
     4  O    0.000293  -0.025608   0.000386   0.000068   0.000013   0.000044
     5  Zr  -0.003404   0.068263  -0.009662   0.220801  -0.018565   0.235559
     6  H   -0.000044   0.000862   0.000057  -0.000000   0.000000   0.000011
     7  H    0.382407   0.000081   0.000041   0.000005   0.000000  -0.000000
     8  O    0.000081   8.135661   0.297182  -0.002073  -0.000545  -0.014325
     9  H    0.000041   0.297182   0.328259  -0.000499  -0.000042   0.004286
    10  O    0.000005  -0.002073  -0.000499   8.171317   0.295764   0.000687
    11  H    0.000000  -0.000545  -0.000042   0.295764   0.394048  -0.000572
    12  O   -0.000000  -0.014325   0.004286   0.000687  -0.000572   8.197389
    13  H    0.000000   0.000512  -0.000099  -0.000165  -0.000008   0.294772
    14  O   -0.000000  -0.000228   0.000052   0.001203   0.000024  -0.000530
    15  H    0.000000   0.000013   0.000001   0.000002  -0.000003  -0.000336
              13         14         15
     1  Si   0.000795  -0.004976   0.000042
     2  O   -0.000026   0.000001   0.000000
     3  O    0.000000  -0.000000  -0.000000
     4  O    0.000016  -0.001189  -0.000614
     5  Zr  -0.021017   0.215641  -0.017170
     6  H   -0.000000   0.000001   0.000000
     7  H    0.000000  -0.000000   0.000000
     8  O    0.000512  -0.000228   0.000013
     9  H   -0.000099   0.000052   0.000001
    10  O   -0.000165   0.001203   0.000002
    11  H   -0.000008   0.000024  -0.000003
    12  O    0.294772  -0.000530  -0.000336
    13  H    0.394813  -0.002529  -0.000018
    14  O   -0.002529   8.167397   0.299824
    15  H   -0.000018   0.299824   0.386581
 Mulliken charges:
               1
     1  Si   1.179966
     2  O   -0.611170
     3  O   -0.583645
     4  O   -0.705504
     5  Zr   1.382330
     6  H    0.337586
     7  H    0.336326
     8  O   -0.660700
     9  H    0.388227
    10  O   -0.679978
    11  H    0.329557
    12  O   -0.702933
    13  H    0.332954
    14  O   -0.674690
    15  H    0.331676
 Sum of Mulliken charges =  -0.00000
 Mulliken charges with hydrogens summed into heavy atoms:
               1
     1  Si   1.179966
     2  O   -0.273583
     3  O   -0.247319
     4  O   -0.705504
     5  Zr   1.382330
     8  O   -0.272473
    10  O   -0.350421
    12  O   -0.369980
    14  O   -0.343015
 Electronic spatial extent (au):  <R**2>=           1786.0380
 Charge=              0.0000 electrons
 Dipole moment (field-independent basis, Debye):
    X=             -0.5711    Y=              1.4279    Z=              0.3269  Tot=              1.5722
 Quadrupole moment (field-independent basis, Debye-Ang):
   XX=            -72.3615   YY=            -69.1654   ZZ=            -68.5630
   XY=              3.5895   XZ=              4.3819   YZ=             -4.5560
 Traceless Quadrupole moment (field-independent basis, Debye-Ang):
   XX=             -2.3315   YY=              0.8646   ZZ=              1.4670
   XY=              3.5895   XZ=              4.3819   YZ=             -4.5560
 Octapole moment (field-independent basis, Debye-Ang**2):
  XXX=             13.4647  YYY=             -0.2674  ZZZ=              0.9082  XYY=              1.4569
  XXY=             18.3509  XXZ=            -14.3652  XZZ=             20.8142  YZZ=              4.0037
  YYZ=             -1.2789  XYZ=             -7.8688
 Hexadecapole moment (field-independent basis, Debye-Ang**3):
 XXXX=          -1389.1776 YYYY=           -382.6313 ZZZZ=           -309.9496 XXXY=             -9.8325
 XXXZ=             76.7082 YYYX=             53.4331 YYYZ=             -8.9003 ZZZX=            -35.2032
 ZZZY=            -35.8016 XXYY=           -224.6092 XXZZ=           -241.1179 YYZZ=           -109.2224
 XXYZ=            -18.0660 YYXZ=             34.1288 ZZXY=            -13.6308
 N-N= 6.732492101656D+02 E-N=-3.382402657262D+03  KE= 8.297729364787D+02
 1\1\GINC-GRA783\FOpt\RB3LYP\Gen\H6O7Si1Zr1\SARASHS\24-Jun-2020\0\\#n B
 3LYP/GEN PSEUDO=READ Opt(modredundant)\\Title\\0,1\Si,-1.9426794523,-0
 .1694667874,-0.1810462721\O,-2.3936638403,1.3561532601,-0.6102501734\O
 ,-3.2677887882,-1.1429396091,-0.2674007897\O,-0.6228129094,-0.81815692
 04,-0.8998712207\Zr,0.6976782449,-0.1132257012,0.7468093874\H,-2.89715
 69958,1.4367995876,-1.4272100246\H,-3.0671181029,-2.0613840796,-0.4814
 385951\O,-1.4673444571,0.0821248599,1.4263754935\H,-1.6092540815,0.976
 3619441,1.7759991912\O,1.129765624,-1.5027091925,2.0647082448\H,0.9585
 66983,-1.5741757166,3.0094487851\O,0.5975864914,1.7038263687,1.5638296
 358\H,1.2983719581,2.3616391603,1.4875585388\O,2.3004128668,0.06615193
 32,-0.3528431598\H,2.6226964593,0.249390893,-1.2388290412\\Version=ES6
 4L-G16RevB.01\State=1-A\HF=-866.6713732\RMSD=9.597e-09\RMSF=1.050e-02\
 Dipole=-0.2283845,0.5719164,-0.0580929\Quadrupole=-3.0202509,-0.553637
 1,3.573888,3.9895206,1.0065329,-1.8662402\PG=C01 [X(H6O7Si1Zr1)]\\@


 TO SEE A WORLD IN A GRAIN OF SAND
 AND A HEAVEN IN A WILD FLOWER
 HOLD INFINITY IN THE PALM OF YOUR HAND
 AND ETERNITY IN AN HOUR

                       -- WILLIAM BLAKE
 Job cpu time:       0 days  5 hours  9 minutes 55.8 seconds.
 Elapsed time:       0 days  0 hours 21 minutes 40.8 seconds.
 File lengths (MBytes):  RWF=     23 Int=      0 D2E=      0 Chk=      3 Scr=      1
 Normal termination of Gaussian 16 at Wed Jun 24 14:13:33 2020.
