 Entering Gaussian System, Link 0=g16
 Initial command:
 /opt/software/gaussian/g16.b01/l1.exe "/localscratch/sarashs.33453163.0/Gau-24894.inp" -scrdir="/localscratch/sarashs.33453163.0/"
 Entering Link 1 = /opt/software/gaussian/g16.b01/l1.exe PID=     24895.
  
 Copyright (c) 1988-2017, Gaussian, Inc.  All Rights Reserved.
  
 This is part of the Gaussian(R) 16 program.  It is based on
 the Gaussian(R) 09 system (copyright 2009, Gaussian, Inc.),
 the Gaussian(R) 03 system (copyright 2003, Gaussian, Inc.),
 the Gaussian(R) 98 system (copyright 1998, Gaussian, Inc.),
 the Gaussian(R) 94 system (copyright 1995, Gaussian, Inc.),
 the Gaussian 92(TM) system (copyright 1992, Gaussian, Inc.),
 the Gaussian 90(TM) system (copyright 1990, Gaussian, Inc.),
 the Gaussian 88(TM) system (copyright 1988, Gaussian, Inc.),
 the Gaussian 86(TM) system (copyright 1986, Carnegie Mellon
 University), and the Gaussian 82(TM) system (copyright 1983,
 Carnegie Mellon University). Gaussian is a federally registered
 trademark of Gaussian, Inc.
  
 This software contains proprietary and confidential information,
 including trade secrets, belonging to Gaussian, Inc.
  
 This software is provided under written license and may be
 used, copied, transmitted, or stored only in accord with that
 written license.
  
 The following legend is applicable only to US Government
 contracts under FAR:
  
                    RESTRICTED RIGHTS LEGEND
  
 Use, reproduction and disclosure by the US Government is
 subject to restrictions as set forth in subparagraphs (a)
 and (c) of the Commercial Computer Software - Restricted
 Rights clause in FAR 52.227-19.
  
 Gaussian, Inc.
 340 Quinnipiac St., Bldg. 40, Wallingford CT 06492
  
  
 ---------------------------------------------------------------
 Warning -- This program may not be used in any manner that
 competes with the business of Gaussian, Inc. or will provide
 assistance to any competitor of Gaussian, Inc.  The licensee
 of this program is prohibited from giving any competitor of
 Gaussian, Inc. access to this program.  By using this program,
 the user acknowledges that Gaussian, Inc. is engaged in the
 business of creating and licensing software in the field of
 computational chemistry and represents and warrants to the
 licensee that it is not a competitor of Gaussian, Inc. and that
 it will not use this program in any manner prohibited above.
 ---------------------------------------------------------------
  

 Cite this work as:
 Gaussian 16, Revision B.01,
 M. J. Frisch, G. W. Trucks, H. B. Schlegel, G. E. Scuseria, 
 M. A. Robb, J. R. Cheeseman, G. Scalmani, V. Barone, 
 G. A. Petersson, H. Nakatsuji, X. Li, M. Caricato, A. V. Marenich, 
 J. Bloino, B. G. Janesko, R. Gomperts, B. Mennucci, H. P. Hratchian, 
 J. V. Ortiz, A. F. Izmaylov, J. L. Sonnenberg, D. Williams-Young, 
 F. Ding, F. Lipparini, F. Egidi, J. Goings, B. Peng, A. Petrone, 
 T. Henderson, D. Ranasinghe, V. G. Zakrzewski, J. Gao, N. Rega, 
 G. Zheng, W. Liang, M. Hada, M. Ehara, K. Toyota, R. Fukuda, 
 J. Hasegawa, M. Ishida, T. Nakajima, Y. Honda, O. Kitao, H. Nakai, 
 T. Vreven, K. Throssell, J. A. Montgomery, Jr., J. E. Peralta, 
 F. Ogliaro, M. J. Bearpark, J. J. Heyd, E. N. Brothers, K. N. Kudin, 
 V. N. Staroverov, T. A. Keith, R. Kobayashi, J. Normand, 
 K. Raghavachari, A. P. Rendell, J. C. Burant, S. S. Iyengar, 
 J. Tomasi, M. Cossi, J. M. Millam, M. Klene, C. Adamo, R. Cammi, 
 J. W. Ochterski, R. L. Martin, K. Morokuma, O. Farkas, 
 J. B. Foresman, and D. J. Fox, Gaussian, Inc., Wallingford CT, 2016.
 
 ******************************************
 Gaussian 16:  ES64L-G16RevB.01 20-Dec-2017
                24-Jun-2020 
 ******************************************
 %NProcShared=16
 Will use up to   16 processors via shared memory.
 ------------------------------------------
 #n B3LYP/GEN PSEUDO=READ Opt(modredundant)
 ------------------------------------------
 1/18=120,19=15,26=3,38=1/1,3;
 2/9=110,12=2,17=6,18=5,40=1/2;
 3/5=7,11=2,16=1,17=8,25=1,30=1,71=1,74=-5/1,2,3;
 4//1;
 5/5=2,38=5/2;
 6/7=2,8=2,9=2,10=2,28=1/1;
 7//1,2,3,16;
 1/18=20,19=15,26=3/3(2);
 2/9=110/2;
 99//99;
 2/9=110/2;
 3/5=7,6=1,11=2,16=1,17=8,25=1,30=1,71=1,74=-5,82=7/1,2,3;
 4/5=5,16=3,69=1/1;
 5/5=2,38=5/2;
 7//1,2,3,16;
 1/18=20,19=15,26=3/3(-5);
 2/9=110/2;
 6/7=2,8=2,9=2,10=2,19=2,28=1/1;
 99/9=1/99;
 -----
 Title
 -----
 Symbolic Z-matrix:
 Charge =  0 Multiplicity = 1
 Si                   -1.90698  -0.04093  -0.13187 
 O                    -2.77661   1.33183  -0.36828 
 O                    -2.96472  -1.30138  -0.09409 
 O                    -0.62539  -0.3216   -1.09659 
 Zr                    1.1128   -0.01738  -0.05191 
 H                    -3.57833   1.23701  -0.89318 
 H                    -2.59505  -2.1428   -0.38501 
 O                    -1.07346   0.19403   1.32035 
 H                    -1.20745   1.04108   1.76425 
 O                     1.52728  -1.48004   1.19885 
 H                     1.28026  -1.63893   2.11542 
 O                     1.26316   1.79502   0.7374 
 H                     1.92069   2.46949   0.53365 
 O                     2.53182  -0.10371  -1.39389 
 H                     3.30888  -0.61077  -1.64253 
 
 The following ModRedundant input section has been read:
 A       1       4       5 F                                                   
 

 GradGradGradGradGradGradGradGradGradGradGradGradGradGradGradGradGradGrad
 Berny optimization.
 Initialization pass.
                           ----------------------------
                           !    Initial Parameters    !
                           ! (Angstroms and Degrees)  !
 --------------------------                            --------------------------
 ! Name  Definition              Value          Derivative Info.                !
 --------------------------------------------------------------------------------
 ! R1    R(1,2)                  1.6421         estimate D2E/DX2                !
 ! R2    R(1,3)                  1.6459         estimate D2E/DX2                !
 ! R3    R(1,4)                  1.6285         estimate D2E/DX2                !
 ! R4    R(1,5)                  3.0209         estimate D2E/DX2                !
 ! R5    R(1,8)                  1.6908         estimate D2E/DX2                !
 ! R6    R(2,6)                  0.9629         estimate D2E/DX2                !
 ! R7    R(3,7)                  0.964          estimate D2E/DX2                !
 ! R8    R(4,5)                  2.0507         estimate D2E/DX2                !
 ! R9    R(5,10)                 1.9686         estimate D2E/DX2                !
 ! R10   R(5,12)                 1.9825         estimate D2E/DX2                !
 ! R11   R(5,14)                 1.955          estimate D2E/DX2                !
 ! R12   R(8,9)                  0.9657         estimate D2E/DX2                !
 ! R13   R(10,11)                0.9625         estimate D2E/DX2                !
 ! R14   R(12,13)                0.9637         estimate D2E/DX2                !
 ! R15   R(14,15)                0.9606         estimate D2E/DX2                !
 ! A1    A(2,1,3)              107.6477         estimate D2E/DX2                !
 ! A2    A(2,1,4)              118.3958         estimate D2E/DX2                !
 ! A3    A(2,1,5)              121.7803         estimate D2E/DX2                !
 ! A4    A(2,1,8)              105.5776         estimate D2E/DX2                !
 ! A5    A(3,1,4)              112.7909         estimate D2E/DX2                !
 ! A6    A(3,1,5)              130.3737         estimate D2E/DX2                !
 ! A7    A(3,1,8)              113.7977         estimate D2E/DX2                !
 ! A8    A(4,1,8)               98.3257         estimate D2E/DX2                !
 ! A9    A(5,1,8)               58.8959         estimate D2E/DX2                !
 ! A10   A(1,2,6)              115.9167         estimate D2E/DX2                !
 ! A11   A(1,3,7)              114.5237         estimate D2E/DX2                !
 ! A12   A(1,4,5)              109.8591         Frozen                          !
 ! A13   A(1,5,10)             102.7963         estimate D2E/DX2                !
 ! A14   A(1,5,12)              95.3638         estimate D2E/DX2                !
 ! A15   A(1,5,14)             134.9959         estimate D2E/DX2                !
 ! A16   A(4,5,10)             113.0729         estimate D2E/DX2                !
 ! A17   A(4,5,12)             113.749          estimate D2E/DX2                !
 ! A18   A(4,5,14)             105.0105         estimate D2E/DX2                !
 ! A19   A(10,5,12)            114.2238         estimate D2E/DX2                !
 ! A20   A(10,5,14)            104.5067         estimate D2E/DX2                !
 ! A21   A(12,5,14)            104.9878         estimate D2E/DX2                !
 ! A22   A(1,8,9)              116.6352         estimate D2E/DX2                !
 ! A23   A(5,10,11)            132.3497         estimate D2E/DX2                !
 ! A24   A(5,12,13)            127.3997         estimate D2E/DX2                !
 ! A25   A(5,14,15)            142.0125         estimate D2E/DX2                !
 ! D1    D(3,1,2,6)            -31.5445         estimate D2E/DX2                !
 ! D2    D(4,1,2,6)             97.8074         estimate D2E/DX2                !
 ! D3    D(5,1,2,6)            143.8349         estimate D2E/DX2                !
 ! D4    D(8,1,2,6)           -153.4334         estimate D2E/DX2                !
 ! D5    D(2,1,3,7)            151.7162         estimate D2E/DX2                !
 ! D6    D(4,1,3,7)             19.2636         estimate D2E/DX2                !
 ! D7    D(5,1,3,7)            -23.1267         estimate D2E/DX2                !
 ! D8    D(8,1,3,7)            -91.6497         estimate D2E/DX2                !
 ! D9    D(2,1,5,10)           148.5806         estimate D2E/DX2                !
 ! D10   D(2,1,5,12)            32.2258         estimate D2E/DX2                !
 ! D11   D(2,1,5,14)           -85.2383         estimate D2E/DX2                !
 ! D12   D(3,1,5,10)           -37.2026         estimate D2E/DX2                !
 ! D13   D(3,1,5,12)          -153.5574         estimate D2E/DX2                !
 ! D14   D(3,1,5,14)            88.9785         estimate D2E/DX2                !
 ! D15   D(8,1,5,10)            58.8583         estimate D2E/DX2                !
 ! D16   D(8,1,5,12)           -57.4964         estimate D2E/DX2                !
 ! D17   D(8,1,5,14)          -174.9605         estimate D2E/DX2                !
 ! D18   D(2,1,8,9)             -0.7356         estimate D2E/DX2                !
 ! D19   D(3,1,8,9)           -118.5698         estimate D2E/DX2                !
 ! D20   D(4,1,8,9)            121.931          estimate D2E/DX2                !
 ! D21   D(5,1,8,9)            117.3215         estimate D2E/DX2                !
 ! D22   D(1,5,10,11)          -58.0067         estimate D2E/DX2                !
 ! D23   D(4,5,10,11)          -88.2383         estimate D2E/DX2                !
 ! D24   D(12,5,10,11)          43.9576         estimate D2E/DX2                !
 ! D25   D(14,5,10,11)         158.1207         estimate D2E/DX2                !
 ! D26   D(1,5,12,13)         -142.2163         estimate D2E/DX2                !
 ! D27   D(4,5,12,13)         -116.9745         estimate D2E/DX2                !
 ! D28   D(10,5,12,13)         111.1543         estimate D2E/DX2                !
 ! D29   D(14,5,12,13)          -2.7246         estimate D2E/DX2                !
 ! D30   D(1,5,14,15)         -123.526          estimate D2E/DX2                !
 ! D31   D(4,5,14,15)         -117.1603         estimate D2E/DX2                !
 ! D32   D(10,5,14,15)           2.0811         estimate D2E/DX2                !
 ! D33   D(12,5,14,15)         122.6125         estimate D2E/DX2                !
 --------------------------------------------------------------------------------
 Trust Radius=3.00D-01 FncErr=1.00D-07 GrdErr=1.00D-06 EigMax=2.50D+02 EigMin=1.00D-04
 Number of steps in this run=     83 maximum allowed number of steps=    100.
 GradGradGradGradGradGradGradGradGradGradGradGradGradGradGradGradGradGrad

                          Input orientation:                          
 ---------------------------------------------------------------------
 Center     Atomic      Atomic             Coordinates (Angstroms)
 Number     Number       Type             X           Y           Z
 ---------------------------------------------------------------------
      1         14           0       -1.906980   -0.040930   -0.131870
      2          8           0       -2.776610    1.331830   -0.368280
      3          8           0       -2.964720   -1.301380   -0.094090
      4          8           0       -0.625390   -0.321600   -1.096590
      5         40           0        1.112800   -0.017380   -0.051910
      6          1           0       -3.578330    1.237010   -0.893180
      7          1           0       -2.595050   -2.142800   -0.385010
      8          8           0       -1.073460    0.194030    1.320350
      9          1           0       -1.207450    1.041080    1.764250
     10          8           0        1.527280   -1.480040    1.198850
     11          1           0        1.280260   -1.638930    2.115420
     12          8           0        1.263160    1.795020    0.737400
     13          1           0        1.920690    2.469490    0.533650
     14          8           0        2.531820   -0.103710   -1.393890
     15          1           0        3.308880   -0.610770   -1.642530
 ---------------------------------------------------------------------
                    Distance matrix (angstroms):
                    1          2          3          4          5
     1  Si   0.000000
     2  O    1.642138   0.000000
     3  O    1.645897   2.654121   0.000000
     4  O    1.628476   2.809273   2.727167   0.000000
     5  Zr   3.020930   4.128918   4.275115   2.050661   0.000000
     6  H    2.237439   0.962946   2.731023   3.345220   4.928279
     7  H    2.226068   3.479411   0.963991   2.775370   4.286784
     8  O    1.690830   2.654577   2.795310   2.511621   2.589889
     9  H    2.292457   2.663547   3.468219   3.221816   3.130868
    10  O    3.954238   5.374568   4.677786   3.353359   1.968646
    11  H    4.214548   5.608242   4.797471   3.960286   2.711971
    12  O    3.765120   4.213884   5.306038   3.377902   1.982527
    13  H    4.625601   4.916541   6.203285   4.114655   2.679569
    14  O    4.615147   5.593932   5.773720   3.178654   1.954989
    15  H    5.460037   6.513877   6.498666   3.982480   2.775779
                    6          7          8          9         10
     6  H    0.000000
     7  H    3.556430   0.000000
     8  O    3.501699   3.268679   0.000000
     9  H    3.566706   4.084341   0.965657   0.000000
    10  O    6.150301   4.465587   3.095339   3.762243   0.000000
    11  H    6.397547   4.639403   3.087374   3.673483   0.962479
    12  O    5.139085   5.626012   2.891849   2.779705   3.317938
    13  H    5.813267   6.519897   3.842076   3.652395   4.024432
    14  O    6.275522   5.608968   4.522587   5.026583   3.102529
    15  H    7.170040   6.227749   5.350819   5.893386   3.464559
                   11         12         13         14         15
    11  H    0.000000
    12  O    3.700168   0.000000
    13  H    4.448737   0.963727   0.000000
    14  O    4.029710   3.123631   3.272652   0.000000
    15  H    4.392562   3.954347   4.018810   0.960601   0.000000
 Stoichiometry    H6O7SiZr
 Framework group  C1[X(H6O7SiZr)]
 Deg. of freedom    39
 Full point group                 C1      NOp   1
 Largest Abelian subgroup         C1      NOp   1
 Largest concise Abelian subgroup C1      NOp   1
                         Standard orientation:                         
 ---------------------------------------------------------------------
 Center     Atomic      Atomic             Coordinates (Angstroms)
 Number     Number       Type             X           Y           Z
 ---------------------------------------------------------------------
      1         14           0       -1.906979   -0.040930   -0.131870
      2          8           0       -2.776609    1.331830   -0.368280
      3          8           0       -2.964720   -1.301380   -0.094090
      4          8           0       -0.625389   -0.321600   -1.096590
      5         40           0        1.112801   -0.017381   -0.051910
      6          1           0       -3.578329    1.237011   -0.893180
      7          1           0       -2.595050   -2.142800   -0.385010
      8          8           0       -1.073459    0.194030    1.320350
      9          1           0       -1.207449    1.041080    1.764250
     10          8           0        1.527280   -1.480041    1.198850
     11          1           0        1.280260   -1.638931    2.115420
     12          8           0        1.263161    1.795019    0.737400
     13          1           0        1.920691    2.469489    0.533650
     14          8           0        2.531821   -0.103711   -1.393890
     15          1           0        3.308881   -0.610772   -1.642530
 ---------------------------------------------------------------------
 Rotational constants (GHZ):           1.7699336           0.6100021           0.5842443
 General basis read from cards:  (5D, 7F)
 ======================================================================================================
                                       Pseudopotential Parameters
 ======================================================================================================
  Center     Atomic      Valence      Angular      Power
  Number     Number     Electrons     Momentum     of R      Exponent        Coefficient   SO-Coeffient
 ======================================================================================================
    1         14
                                   No pseudopotential on this center.
    2          8
                                   No pseudopotential on this center.
    3          8
                                   No pseudopotential on this center.
    4          8
                                   No pseudopotential on this center.
    5         40           12
                                      F and up 
                                                     0      645.9321873       -0.04258430    0.00000000
                                                     1      134.7547401      -20.22224090    0.00000000
                                                     2       42.3074619     -101.86951720    0.00000000
                                                     2       12.0003227      -41.61957840    0.00000000
                                                     2        4.1260454       -4.69861600    0.00000000
                                      S - F
                                                     0      117.6251862        2.79105590    0.00000000
                                                     1       22.9646089       41.94894590    0.00000000
                                                     2        4.5225298       67.72718660    0.00000000
                                      P - F
                                                     0       47.1953145        4.99111440    0.00000000
                                                     1       48.0356033       20.71931720    0.00000000
                                                     2       19.4541456      195.58677580    0.00000000
                                                     2        4.0512875       48.28771760    0.00000000
                                      D - F
                                                     0       79.9073983        3.00492260    0.00000000
                                                     1       45.8263798       25.93779890    0.00000000
                                                     2       26.9903522      125.12449340    0.00000000
                                                     2        9.6835718       70.76340220    0.00000000
                                                     2        2.7995666       15.04928220    0.00000000
    6          1
                                   No pseudopotential on this center.
    7          1
                                   No pseudopotential on this center.
    8          8
                                   No pseudopotential on this center.
    9          1
                                   No pseudopotential on this center.
   10          8
                                   No pseudopotential on this center.
   11          1
                                   No pseudopotential on this center.
   12          8
                                   No pseudopotential on this center.
   13          1
                                   No pseudopotential on this center.
   14          8
                                   No pseudopotential on this center.
   15          1
                                   No pseudopotential on this center.
 ======================================================================================================
 There are   178 symmetry adapted cartesian basis functions of A   symmetry.
 There are   168 symmetry adapted basis functions of A   symmetry.
   168 basis functions,   339 primitive gaussians,   178 cartesian basis functions
    44 alpha electrons       44 beta electrons
       nuclear repulsion energy       663.4162171648 Hartrees.
 NAtoms=   15 NActive=   15 NUniq=   15 SFac= 1.00D+00 NAtFMM=   60 NAOKFM=F Big=F
 Integral buffers will be    131072 words long.
 Raffenetti 2 integral format.
 Two-electron integral symmetry is turned on.
 One-electron integrals computed using PRISM.
   1 Symmetry operations used in ECPInt.
 ECPInt:  NShTT=    1770 NPrTT=   10201 LenC2=    1666 LenP2D=    6739.
 LDataN:  DoStor=T MaxTD1= 5 Len=  102
 NBasis=   168 RedAO= T EigKep=  8.52D-03  NBF=   168
 NBsUse=   168 1.00D-06 EigRej= -1.00D+00 NBFU=   168
 Defaulting to unpruned grid for atomic number  40.
 ExpMin= 2.43D-02 ExpMax= 1.61D+04 ExpMxC= 2.43D+03 IAcc=3 IRadAn=         5 AccDes= 0.00D+00
 Harris functional with IExCor=  402 and IRadAn=       5 diagonalized for initial guess.
 HarFok:  IExCor=  402 AccDes= 0.00D+00 IRadAn=         5 IDoV= 1 UseB2=F ITyADJ=14
 ICtDFT=  3500011 ScaDFX=  1.000000  1.000000  1.000000  1.000000
 Defaulting to unpruned grid for atomic number  40.
 FoFCou: FMM=F IPFlag=           0 FMFlag=      100000 FMFlg1=           0
         NFxFlg=           0 DoJE=T BraDBF=F KetDBF=T FulRan=T
         wScrn=  0.000000 ICntrl=       500 IOpCl=  0 I1Cent=   200000004 NGrid=           0
         NMat0=    1 NMatS0=      1 NMatT0=    0 NMatD0=    1 NMtDS0=    0 NMtDT0=    0
 Petite list used in FoFCou.
 Requested convergence on RMS density matrix=1.00D-08 within 128 cycles.
 Requested convergence on MAX density matrix=1.00D-06.
 Requested convergence on             energy=1.00D-06.
 No special actions if energy rises.
 Defaulting to unpruned grid for atomic number  40.
 Defaulting to unpruned grid for atomic number  40.
 Defaulting to unpruned grid for atomic number  40.
 Defaulting to unpruned grid for atomic number  40.
 Defaulting to unpruned grid for atomic number  40.
 Defaulting to unpruned grid for atomic number  40.
 Defaulting to unpruned grid for atomic number  40.
 Defaulting to unpruned grid for atomic number  40.
 Defaulting to unpruned grid for atomic number  40.
 Defaulting to unpruned grid for atomic number  40.
 Defaulting to unpruned grid for atomic number  40.
 Defaulting to unpruned grid for atomic number  40.
 Defaulting to unpruned grid for atomic number  40.
 Defaulting to unpruned grid for atomic number  40.
 Defaulting to unpruned grid for atomic number  40.
 Defaulting to unpruned grid for atomic number  40.
 SCF Done:  E(RB3LYP) =  -866.688996743     A.U. after   15 cycles
            NFock= 15  Conv=0.22D-08     -V/T= 2.0445

 **********************************************************************

            Population analysis using the SCF Density.

 **********************************************************************

 Orbital symmetries:
       Occupied  (A) (A) (A) (A) (A) (A) (A) (A) (A) (A) (A) (A)
                 (A) (A) (A) (A) (A) (A) (A) (A) (A) (A) (A) (A)
                 (A) (A) (A) (A) (A) (A) (A) (A) (A) (A) (A) (A)
                 (A) (A) (A) (A) (A) (A) (A) (A)
       Virtual   (A) (A) (A) (A) (A) (A) (A) (A) (A) (A) (A) (A)
                 (A) (A) (A) (A) (A) (A) (A) (A) (A) (A) (A) (A)
                 (A) (A) (A) (A) (A) (A) (A) (A) (A) (A) (A) (A)
                 (A) (A) (A) (A) (A) (A) (A) (A) (A) (A) (A) (A)
                 (A) (A) (A) (A) (A) (A) (A) (A) (A) (A) (A) (A)
                 (A) (A) (A) (A) (A) (A) (A) (A) (A) (A) (A) (A)
                 (A) (A) (A) (A) (A) (A) (A) (A) (A) (A) (A) (A)
                 (A) (A) (A) (A) (A) (A) (A) (A) (A) (A) (A) (A)
                 (A) (A) (A) (A) (A) (A) (A) (A) (A) (A) (A) (A)
                 (A) (A) (A) (A) (A) (A) (A) (A) (A) (A) (A) (A)
                 (A) (A) (A) (A)
 The electronic state is 1-A.
 Alpha  occ. eigenvalues --  -66.19775 -19.16646 -19.15429 -19.15358 -19.13480
 Alpha  occ. eigenvalues --  -19.13066 -19.13055 -19.12206  -5.34134  -3.70128
 Alpha  occ. eigenvalues --   -3.70061  -3.69993  -2.05678  -1.26362  -1.26270
 Alpha  occ. eigenvalues --   -1.25865  -1.03570  -1.00786  -1.00000  -0.95174
 Alpha  occ. eigenvalues --   -0.94434  -0.93946  -0.93004  -0.57983  -0.53331
 Alpha  occ. eigenvalues --   -0.52321  -0.48079  -0.47115  -0.46556  -0.43347
 Alpha  occ. eigenvalues --   -0.39812  -0.39316  -0.37915  -0.36080  -0.34823
 Alpha  occ. eigenvalues --   -0.34051  -0.33813  -0.33382  -0.32281  -0.31604
 Alpha  occ. eigenvalues --   -0.30660  -0.30419  -0.30152  -0.29662
 Alpha virt. eigenvalues --   -0.01648  -0.01005  -0.00176   0.00589   0.01592
 Alpha virt. eigenvalues --    0.02188   0.02991   0.03241   0.04972   0.08327
 Alpha virt. eigenvalues --    0.09400   0.12276   0.14423   0.15251   0.16163
 Alpha virt. eigenvalues --    0.17007   0.17936   0.18909   0.19589   0.23445
 Alpha virt. eigenvalues --    0.23776   0.24624   0.25095   0.26505   0.28687
 Alpha virt. eigenvalues --    0.30623   0.32003   0.33390   0.38427   0.38961
 Alpha virt. eigenvalues --    0.41345   0.56069   0.63308   0.73459   0.78887
 Alpha virt. eigenvalues --    0.80322   0.84315   0.86438   0.87314   0.89504
 Alpha virt. eigenvalues --    0.90654   0.91296   0.92800   0.94919   0.95549
 Alpha virt. eigenvalues --    0.97053   0.98207   1.00294   1.02131   1.03899
 Alpha virt. eigenvalues --    1.07567   1.07844   1.08759   1.10062   1.12630
 Alpha virt. eigenvalues --    1.14556   1.15595   1.19257   1.19746   1.21478
 Alpha virt. eigenvalues --    1.23811   1.25466   1.28569   1.38327   1.47501
 Alpha virt. eigenvalues --    1.48481   1.50782   1.51516   1.52683   1.56353
 Alpha virt. eigenvalues --    1.57627   1.58254   1.59947   1.60916   1.63197
 Alpha virt. eigenvalues --    1.63651   1.64645   1.68114   1.68905   1.70959
 Alpha virt. eigenvalues --    1.73152   1.75318   1.80172   1.80416   1.81691
 Alpha virt. eigenvalues --    1.82835   1.83764   1.85608   1.86775   1.88336
 Alpha virt. eigenvalues --    1.91181   1.92479   2.00814   2.08574   2.13534
 Alpha virt. eigenvalues --    2.35308   2.35664   2.36330   2.37667   2.38483
 Alpha virt. eigenvalues --    2.39805   2.43205   2.55929   2.59269   2.62061
 Alpha virt. eigenvalues --    2.62743   2.63871   2.64201   2.64374   2.64858
 Alpha virt. eigenvalues --    2.65144   2.65342   2.66080   2.66512   2.72280
 Alpha virt. eigenvalues --    2.77395   2.81981   3.40787   3.42206   3.42866
 Alpha virt. eigenvalues --    3.44011   3.45789   3.46480   4.29695
          Condensed to atoms (all electrons):
               1          2          3          4          5          6
     1  Si  11.566501   0.387525   0.394691   0.343531  -0.098166  -0.022052
     2  O    0.387525   7.951292  -0.020218  -0.010607   0.005249   0.304309
     3  O    0.394691  -0.020218   7.943781  -0.016984  -0.000029  -0.001016
     4  O    0.343531  -0.010607  -0.016984   8.267778   0.191798  -0.000297
     5  Zr  -0.098166   0.005249  -0.000029   0.191798   9.788370  -0.000926
     6  H   -0.022052   0.304309  -0.001016  -0.000297  -0.000926   0.379480
     7  H   -0.017705   0.000382   0.301744   0.001215  -0.003062  -0.000044
     8  O    0.259812  -0.018347  -0.012716  -0.039205   0.102111   0.000626
     9  H   -0.009249   0.000940  -0.000224   0.000822  -0.011345   0.000009
    10  O   -0.006972  -0.000000   0.000001   0.000191   0.226873  -0.000000
    11  H    0.000125  -0.000000   0.000000  -0.000082  -0.017176   0.000000
    12  O   -0.008301   0.000001  -0.000000   0.000307   0.226621   0.000000
    13  H    0.000427  -0.000002   0.000000  -0.000020  -0.017186  -0.000000
    14  O   -0.000528   0.000000  -0.000000   0.000683   0.210268   0.000000
    15  H   -0.000002  -0.000000   0.000000  -0.000059  -0.014378  -0.000000
               7          8          9         10         11         12
     1  Si  -0.017705   0.259812  -0.009249  -0.006972   0.000125  -0.008301
     2  O    0.000382  -0.018347   0.000940  -0.000000  -0.000000   0.000001
     3  O    0.301744  -0.012716  -0.000224   0.000001   0.000000  -0.000000
     4  O    0.001215  -0.039205   0.000822   0.000191  -0.000082   0.000307
     5  Zr  -0.003062   0.102111  -0.011345   0.226873  -0.017176   0.226621
     6  H   -0.000044   0.000626   0.000009  -0.000000   0.000000   0.000000
     7  H    0.382165  -0.000194   0.000053  -0.000003  -0.000001  -0.000000
     8  O   -0.000194   8.063111   0.297474  -0.003706  -0.000672  -0.006330
     9  H    0.000053   0.297474   0.359645  -0.000124  -0.000026   0.001690
    10  O   -0.000003  -0.003706  -0.000124   8.175905   0.295114   0.000746
    11  H   -0.000001  -0.000672  -0.000026   0.295114   0.392309  -0.000307
    12  O   -0.000000  -0.006330   0.001690   0.000746  -0.000307   8.192590
    13  H   -0.000000   0.000231  -0.000062  -0.000060  -0.000000   0.291555
    14  O   -0.000000  -0.000055   0.000005   0.000850   0.000013   0.000528
    15  H    0.000000  -0.000001  -0.000000  -0.000522   0.000001  -0.000098
              13         14         15
     1  Si   0.000427  -0.000528  -0.000002
     2  O   -0.000002   0.000000  -0.000000
     3  O    0.000000  -0.000000   0.000000
     4  O   -0.000020   0.000683  -0.000059
     5  Zr  -0.017186   0.210268  -0.014378
     6  H   -0.000000   0.000000  -0.000000
     7  H   -0.000000  -0.000000   0.000000
     8  O    0.000231  -0.000055  -0.000001
     9  H   -0.000062   0.000005  -0.000000
    10  O   -0.000060   0.000850  -0.000522
    11  H   -0.000000   0.000013   0.000001
    12  O    0.291555   0.000528  -0.000098
    13  H    0.398210  -0.001474  -0.000000
    14  O   -0.001474   8.181870   0.298781
    15  H   -0.000000   0.298781   0.383459
 Mulliken charges:
               1
     1  Si   1.210365
     2  O   -0.600523
     3  O   -0.589031
     4  O   -0.739072
     5  Zr   1.410980
     6  H    0.339910
     7  H    0.335450
     8  O   -0.642138
     9  H    0.360392
    10  O   -0.688292
    11  H    0.330703
    12  O   -0.699003
    13  H    0.328382
    14  O   -0.690942
    15  H    0.332819
 Sum of Mulliken charges =  -0.00000
 Mulliken charges with hydrogens summed into heavy atoms:
               1
     1  Si   1.210365
     2  O   -0.260613
     3  O   -0.253581
     4  O   -0.739072
     5  Zr   1.410980
     8  O   -0.281746
    10  O   -0.357588
    12  O   -0.370621
    14  O   -0.358123
 Electronic spatial extent (au):  <R**2>=           1891.1379
 Charge=             -0.0000 electrons
 Dipole moment (field-independent basis, Debye):
    X=              0.1207    Y=             -0.1411    Z=              0.5692  Tot=              0.5987
 Quadrupole moment (field-independent basis, Debye-Ang):
   XX=            -64.9352   YY=            -69.3989   ZZ=            -71.8669
   XY=              0.9331   XZ=              1.7177   YZ=              1.3796
 Traceless Quadrupole moment (field-independent basis, Debye-Ang):
   XX=              3.7985   YY=             -0.6653   ZZ=             -3.1332
   XY=              0.9331   XZ=              1.7177   YZ=              1.3796
 Octapole moment (field-independent basis, Debye-Ang**2):
  XXX=             38.9959  YYY=             -3.8325  ZZZ=             18.4222  XYY=              9.1905
  XXY=             12.5595  XXZ=            -28.6992  XZZ=              7.4525  YZZ=             -4.5918
  YYZ=             -1.3818  XYZ=              3.0970
 Hexadecapole moment (field-independent basis, Debye-Ang**3):
 XXXX=          -1345.6981 YYYY=           -372.6997 ZZZZ=           -318.2504 XXXY=            -72.2012
 XXXZ=             17.4861 YYYX=             76.7782 YYYZ=              8.3978 ZZZX=              4.0255
 ZZZY=            -12.3016 XXYY=           -284.3158 XXZZ=           -271.9559 YYZZ=           -111.0119
 XXYZ=             21.4720 YYXZ=              5.1754 ZZXY=            -33.5031
 N-N= 6.634162171648D+02 E-N=-3.363174143756D+03  KE= 8.297818585727D+02
   1 Symmetry operations used in ECPInt.
 ECPInt:  NShTT=    1770 NPrTT=   10201 LenC2=    1666 LenP2D=    6739.
 LDataN:  DoStor=T MaxTD1= 6 Len=  172
 Calling FoFJK, ICntrl=      2127 FMM=F ISym2X=0 I1Cent= 0 IOpClX= 0 NMat=1 NMatS=1 NMatT=0.
 Defaulting to unpruned grid for atomic number  40.
 Defaulting to unpruned grid for atomic number  40.
 Defaulting to unpruned grid for atomic number  40.
 Defaulting to unpruned grid for atomic number  40.
 Defaulting to unpruned grid for atomic number  40.
 Defaulting to unpruned grid for atomic number  40.
 Defaulting to unpruned grid for atomic number  40.
 Defaulting to unpruned grid for atomic number  40.
 Defaulting to unpruned grid for atomic number  40.
 Defaulting to unpruned grid for atomic number  40.
 Defaulting to unpruned grid for atomic number  40.
 Defaulting to unpruned grid for atomic number  40.
 Defaulting to unpruned grid for atomic number  40.
 Defaulting to unpruned grid for atomic number  40.
 Defaulting to unpruned grid for atomic number  40.
 Defaulting to unpruned grid for atomic number  40.
 ***** Axes restored to original set *****
 -------------------------------------------------------------------
 Center     Atomic                   Forces (Hartrees/Bohr)
 Number     Number              X              Y              Z
 -------------------------------------------------------------------
      1       14           0.000018648    0.000013412   -0.000022548
      2        8           0.000021156    0.000000387   -0.000021216
      3        8          -0.000029612   -0.000008542    0.000002440
      4        8          -0.000017406    0.000023122    0.000013771
      5       40          -0.000030192    0.000008402   -0.000007731
      6        1          -0.000015288   -0.000000154    0.000017820
      7        1           0.000007614   -0.000002287    0.000000325
      8        8           0.000014533   -0.000027909    0.000036056
      9        1          -0.000009734    0.000015115   -0.000018562
     10        8           0.000022405   -0.000044021    0.000034423
     11        1          -0.000003881    0.000020818   -0.000020201
     12        8           0.000007595    0.000008823   -0.000009502
     13        1          -0.000011480    0.000001860    0.000008449
     14        8           0.000028805   -0.000025453    0.000002584
     15        1          -0.000003161    0.000016428   -0.000016107
 -------------------------------------------------------------------
 Cartesian Forces:  Max     0.000044021 RMS     0.000018540

 GradGradGradGradGradGradGradGradGradGradGradGradGradGradGradGradGradGrad
 Berny optimization.
 FormGI is forming the generalized inverse of G from B-inverse, IUseBI=4.
 Internal  Forces:  Max     0.000044637 RMS     0.000012180
 Search for a local minimum.
 Step number   1 out of a maximum of   83
 All quantities printed in internal units (Hartrees-Bohrs-Radians)
 Mixed Optimization -- En-DIIS/RFO-DIIS
 Second derivative matrix not updated -- first step.
 ITU=  0
     Eigenvalues ---    0.00230   0.00230   0.00230   0.00576   0.03138
     Eigenvalues ---    0.03732   0.03782   0.04480   0.04780   0.07707
     Eigenvalues ---    0.08441   0.10361   0.12849   0.15181   0.15435
     Eigenvalues ---    0.16000   0.16000   0.16000   0.16000   0.16000
     Eigenvalues ---    0.16000   0.18338   0.18952   0.19160   0.19683
     Eigenvalues ---    0.20440   0.21655   0.22746   0.35473   0.37017
     Eigenvalues ---    0.43277   0.43863   0.54274   0.54624   0.54679
     Eigenvalues ---    0.54844   0.54944   0.553441000.000001000.00000
     Eigenvalues --- 1000.000001000.000001000.000001000.000001000.00000
     Eigenvalues --- 1000.000001000.000001000.000001000.000001000.00000
     Eigenvalues --- 1000.000001000.000001000.000001000.000001000.00000
     Eigenvalues --- 1000.000001000.000001000.000001000.000001000.00000
     Eigenvalues --- 1000.000001000.000001000.000001000.000001000.00000
     Eigenvalues --- 1000.000001000.000001000.000001000.000001000.00000
     Eigenvalues --- 1000.000001000.000001000.00000
 RFO step:  Lambda=-6.61909018D-08 EMin= 2.30000000D-03
 Linear search not attempted -- first point.
 Iteration  1 RMS(Cart)=  0.00013473 RMS(Int)=  0.00000002
 Iteration  2 RMS(Cart)=  0.00000002 RMS(Int)=  0.00000000
 Iteration  1 RMS(Cart)=  0.00000000 RMS(Int)=  0.00000000
 Variable       Old X    -DE/DX   Delta X   Delta X   Delta X     New X
                                 (Linear)    (Quad)   (Total)
    R1        3.10319  -0.00000   0.00000  -0.00001  -0.00001   3.10318
    R2        3.11029   0.00002   0.00000   0.00005   0.00005   3.11035
    R3        3.07737  -0.00002   0.00000  -0.00003  -0.00003   3.07734
    R4        5.70873   0.00000   0.00000   0.00001   0.00001   5.70874
    R5        3.19520   0.00001   0.00000   0.00004   0.00004   3.19524
    R6        1.81970   0.00000   0.00000   0.00001   0.00001   1.81971
    R7        1.82168   0.00001   0.00000   0.00001   0.00001   1.82169
    R8        3.87519   0.00000   0.00000   0.00004   0.00004   3.87522
    R9        3.72020   0.00003   0.00000   0.00015   0.00015   3.72036
   R10        3.74643   0.00001   0.00000   0.00005   0.00005   3.74648
   R11        3.69439   0.00003   0.00000   0.00014   0.00014   3.69453
   R12        1.82483   0.00001   0.00000   0.00001   0.00001   1.82484
   R13        1.81882  -0.00002   0.00000  -0.00004  -0.00004   1.81878
   R14        1.82118  -0.00001   0.00000  -0.00002  -0.00002   1.82116
   R15        1.81527  -0.00001   0.00000  -0.00001  -0.00001   1.81526
    A1        1.87881  -0.00000   0.00000  -0.00001  -0.00001   1.87879
    A2        2.06640  -0.00001   0.00000  -0.00005  -0.00005   2.06635
    A3        2.12547  -0.00000   0.00000  -0.00003  -0.00003   2.12544
    A4        1.84268  -0.00000   0.00000  -0.00001  -0.00001   1.84267
    A5        1.96857   0.00001   0.00000   0.00005   0.00005   1.96862
    A6        2.27545   0.00001   0.00000   0.00004   0.00004   2.27549
    A7        1.98615  -0.00000   0.00000  -0.00002  -0.00002   1.98613
    A8        1.71611   0.00000   0.00000   0.00004   0.00004   1.71614
    A9        1.02793   0.00001   0.00000   0.00003   0.00003   1.02796
   A10        2.02313   0.00001   0.00000   0.00005   0.00005   2.02317
   A11        1.99882  -0.00001   0.00000  -0.00007  -0.00007   1.99875
   A12        1.91740   0.00001   0.00000   0.00000   0.00000   1.91740
   A13        1.79413   0.00001   0.00000   0.00005   0.00005   1.79418
   A14        1.66441  -0.00001   0.00000  -0.00008  -0.00008   1.66433
   A15        2.35612   0.00000   0.00000   0.00003   0.00003   2.35615
   A16        1.97349   0.00001   0.00000   0.00007   0.00007   1.97356
   A17        1.98529  -0.00002   0.00000  -0.00009  -0.00009   1.98521
   A18        1.83278   0.00001   0.00000   0.00004   0.00004   1.83282
   A19        1.99358  -0.00000   0.00000  -0.00003  -0.00003   1.99356
   A20        1.82399  -0.00001   0.00000   0.00002   0.00002   1.82400
   A21        1.83238   0.00001   0.00000   0.00000   0.00000   1.83238
   A22        2.03567  -0.00004   0.00000  -0.00028  -0.00028   2.03539
   A23        2.30994  -0.00004   0.00000  -0.00023  -0.00023   2.30971
   A24        2.22354   0.00002   0.00000   0.00014   0.00014   2.22369
   A25        2.47859   0.00004   0.00000   0.00024   0.00024   2.47883
    D1       -0.55056   0.00001   0.00000   0.00023   0.00023  -0.55033
    D2        1.70706   0.00001   0.00000   0.00024   0.00024   1.70730
    D3        2.51039   0.00001   0.00000   0.00023   0.00023   2.51062
    D4       -2.67792   0.00001   0.00000   0.00026   0.00026  -2.67766
    D5        2.64795   0.00000   0.00000   0.00002   0.00002   2.64797
    D6        0.33621   0.00001   0.00000   0.00006   0.00006   0.33627
    D7       -0.40364   0.00000   0.00000   0.00003   0.00003  -0.40361
    D8       -1.59959  -0.00000   0.00000  -0.00001  -0.00001  -1.59959
    D9        2.59322  -0.00000   0.00000  -0.00001  -0.00001   2.59321
   D10        0.56245   0.00000   0.00000   0.00003   0.00003   0.56248
   D11       -1.48769   0.00000   0.00000   0.00011   0.00011  -1.48758
   D12       -0.64931  -0.00000   0.00000  -0.00001  -0.00001  -0.64932
   D13       -2.68008   0.00000   0.00000   0.00003   0.00003  -2.68005
   D14        1.55297   0.00000   0.00000   0.00011   0.00011   1.55308
   D15        1.02727  -0.00000   0.00000  -0.00003  -0.00003   1.02724
   D16       -1.00350  -0.00000   0.00000   0.00001   0.00001  -1.00349
   D17       -3.05364   0.00000   0.00000   0.00009   0.00009  -3.05355
   D18       -0.01284  -0.00000   0.00000  -0.00008  -0.00008  -0.01292
   D19       -2.06943   0.00000   0.00000  -0.00006  -0.00006  -2.06949
   D20        2.12810  -0.00001   0.00000  -0.00013  -0.00013   2.12797
   D21        2.04765  -0.00000   0.00000  -0.00011  -0.00011   2.04753
   D22       -1.01241   0.00000   0.00000  -0.00007  -0.00007  -1.01248
   D23       -1.54005   0.00001   0.00000  -0.00006  -0.00006  -1.54011
   D24        0.76721  -0.00001   0.00000  -0.00015  -0.00015   0.76706
   D25        2.75973  -0.00000   0.00000  -0.00015  -0.00015   2.75958
   D26       -2.48214   0.00000   0.00000   0.00020   0.00020  -2.48194
   D27       -2.04159  -0.00000   0.00000   0.00018   0.00018  -2.04141
   D28        1.94001  -0.00000   0.00000   0.00019   0.00019   1.94020
   D29       -0.04755   0.00000   0.00000   0.00019   0.00019  -0.04737
   D30       -2.15594  -0.00000   0.00000  -0.00009  -0.00009  -2.15603
   D31       -2.04483  -0.00001   0.00000  -0.00006  -0.00006  -2.04489
   D32        0.03632   0.00001   0.00000   0.00004   0.00004   0.03636
   D33        2.13999   0.00000   0.00000   0.00002   0.00002   2.14001
         Item               Value     Threshold  Converged?
 Maximum Force            0.000045     0.000450     YES
 RMS     Force            0.000012     0.000300     YES
 Maximum Displacement     0.000461     0.001800     YES
 RMS     Displacement     0.000135     0.001200     YES
 Predicted change in Energy=-3.309555D-08
 Optimization completed.
    -- Stationary point found.
                           ----------------------------
                           !   Optimized Parameters   !
                           ! (Angstroms and Degrees)  !
 --------------------------                            --------------------------
 ! Name  Definition              Value          Derivative Info.                !
 --------------------------------------------------------------------------------
 ! R1    R(1,2)                  1.6421         -DE/DX =    0.0                 !
 ! R2    R(1,3)                  1.6459         -DE/DX =    0.0                 !
 ! R3    R(1,4)                  1.6285         -DE/DX =    0.0                 !
 ! R4    R(1,5)                  3.0209         -DE/DX =    0.0                 !
 ! R5    R(1,8)                  1.6908         -DE/DX =    0.0                 !
 ! R6    R(2,6)                  0.9629         -DE/DX =    0.0                 !
 ! R7    R(3,7)                  0.964          -DE/DX =    0.0                 !
 ! R8    R(4,5)                  2.0507         -DE/DX =    0.0                 !
 ! R9    R(5,10)                 1.9686         -DE/DX =    0.0                 !
 ! R10   R(5,12)                 1.9825         -DE/DX =    0.0                 !
 ! R11   R(5,14)                 1.955          -DE/DX =    0.0                 !
 ! R12   R(8,9)                  0.9657         -DE/DX =    0.0                 !
 ! R13   R(10,11)                0.9625         -DE/DX =    0.0                 !
 ! R14   R(12,13)                0.9637         -DE/DX =    0.0                 !
 ! R15   R(14,15)                0.9606         -DE/DX =    0.0                 !
 ! A1    A(2,1,3)              107.6477         -DE/DX =    0.0                 !
 ! A2    A(2,1,4)              118.3958         -DE/DX =    0.0                 !
 ! A3    A(2,1,5)              121.7803         -DE/DX =    0.0                 !
 ! A4    A(2,1,8)              105.5776         -DE/DX =    0.0                 !
 ! A5    A(3,1,4)              112.7909         -DE/DX =    0.0                 !
 ! A6    A(3,1,5)              130.3737         -DE/DX =    0.0                 !
 ! A7    A(3,1,8)              113.7977         -DE/DX =    0.0                 !
 ! A8    A(4,1,8)               98.3257         -DE/DX =    0.0                 !
 ! A9    A(5,1,8)               58.8959         -DE/DX =    0.0                 !
 ! A10   A(1,2,6)              115.9167         -DE/DX =    0.0                 !
 ! A11   A(1,3,7)              114.5237         -DE/DX =    0.0                 !
 ! A12   A(1,4,5)              109.8591         -DE/DX =    0.0                 !
 ! A13   A(1,5,10)             102.7963         -DE/DX =    0.0                 !
 ! A14   A(1,5,12)              95.3638         -DE/DX =    0.0                 !
 ! A15   A(1,5,14)             134.9959         -DE/DX =    0.0                 !
 ! A16   A(4,5,10)             113.0729         -DE/DX =    0.0                 !
 ! A17   A(4,5,12)             113.749          -DE/DX =    0.0                 !
 ! A18   A(4,5,14)             105.0105         -DE/DX =    0.0                 !
 ! A19   A(10,5,12)            114.2238         -DE/DX =    0.0                 !
 ! A20   A(10,5,14)            104.5067         -DE/DX =    0.0                 !
 ! A21   A(12,5,14)            104.9878         -DE/DX =    0.0                 !
 ! A22   A(1,8,9)              116.6352         -DE/DX =    0.0                 !
 ! A23   A(5,10,11)            132.3497         -DE/DX =    0.0                 !
 ! A24   A(5,12,13)            127.3997         -DE/DX =    0.0                 !
 ! A25   A(5,14,15)            142.0125         -DE/DX =    0.0                 !
 ! D1    D(3,1,2,6)            -31.5445         -DE/DX =    0.0                 !
 ! D2    D(4,1,2,6)             97.8074         -DE/DX =    0.0                 !
 ! D3    D(5,1,2,6)            143.8349         -DE/DX =    0.0                 !
 ! D4    D(8,1,2,6)           -153.4334         -DE/DX =    0.0                 !
 ! D5    D(2,1,3,7)            151.7162         -DE/DX =    0.0                 !
 ! D6    D(4,1,3,7)             19.2636         -DE/DX =    0.0                 !
 ! D7    D(5,1,3,7)            -23.1267         -DE/DX =    0.0                 !
 ! D8    D(8,1,3,7)            -91.6497         -DE/DX =    0.0                 !
 ! D9    D(2,1,5,10)           148.5806         -DE/DX =    0.0                 !
 ! D10   D(2,1,5,12)            32.2258         -DE/DX =    0.0                 !
 ! D11   D(2,1,5,14)           -85.2383         -DE/DX =    0.0                 !
 ! D12   D(3,1,5,10)           -37.2026         -DE/DX =    0.0                 !
 ! D13   D(3,1,5,12)          -153.5574         -DE/DX =    0.0                 !
 ! D14   D(3,1,5,14)            88.9785         -DE/DX =    0.0                 !
 ! D15   D(8,1,5,10)            58.8583         -DE/DX =    0.0                 !
 ! D16   D(8,1,5,12)           -57.4964         -DE/DX =    0.0                 !
 ! D17   D(8,1,5,14)          -174.9605         -DE/DX =    0.0                 !
 ! D18   D(2,1,8,9)             -0.7356         -DE/DX =    0.0                 !
 ! D19   D(3,1,8,9)           -118.5698         -DE/DX =    0.0                 !
 ! D20   D(4,1,8,9)            121.931          -DE/DX =    0.0                 !
 ! D21   D(5,1,8,9)            117.3215         -DE/DX =    0.0                 !
 ! D22   D(1,5,10,11)          -58.0067         -DE/DX =    0.0                 !
 ! D23   D(4,5,10,11)          -88.2383         -DE/DX =    0.0                 !
 ! D24   D(12,5,10,11)          43.9576         -DE/DX =    0.0                 !
 ! D25   D(14,5,10,11)         158.1207         -DE/DX =    0.0                 !
 ! D26   D(1,5,12,13)         -142.2163         -DE/DX =    0.0                 !
 ! D27   D(4,5,12,13)         -116.9745         -DE/DX =    0.0                 !
 ! D28   D(10,5,12,13)         111.1543         -DE/DX =    0.0                 !
 ! D29   D(14,5,12,13)          -2.7246         -DE/DX =    0.0                 !
 ! D30   D(1,5,14,15)         -123.526          -DE/DX =    0.0                 !
 ! D31   D(4,5,14,15)         -117.1603         -DE/DX =    0.0                 !
 ! D32   D(10,5,14,15)           2.0811         -DE/DX =    0.0                 !
 ! D33   D(12,5,14,15)         122.6125         -DE/DX =    0.0                 !
 --------------------------------------------------------------------------------
 GradGradGradGradGradGradGradGradGradGradGradGradGradGradGradGradGradGrad

                          Input orientation:                          
 ---------------------------------------------------------------------
 Center     Atomic      Atomic             Coordinates (Angstroms)
 Number     Number       Type             X           Y           Z
 ---------------------------------------------------------------------
      1         14           0       -1.906980   -0.040930   -0.131870
      2          8           0       -2.776610    1.331830   -0.368280
      3          8           0       -2.964720   -1.301380   -0.094090
      4          8           0       -0.625390   -0.321600   -1.096590
      5         40           0        1.112800   -0.017380   -0.051910
      6          1           0       -3.578330    1.237010   -0.893180
      7          1           0       -2.595050   -2.142800   -0.385010
      8          8           0       -1.073460    0.194030    1.320350
      9          1           0       -1.207450    1.041080    1.764250
     10          8           0        1.527280   -1.480040    1.198850
     11          1           0        1.280260   -1.638930    2.115420
     12          8           0        1.263160    1.795020    0.737400
     13          1           0        1.920690    2.469490    0.533650
     14          8           0        2.531820   -0.103710   -1.393890
     15          1           0        3.308880   -0.610770   -1.642530
 ---------------------------------------------------------------------
                    Distance matrix (angstroms):
                    1          2          3          4          5
     1  Si   0.000000
     2  O    1.642138   0.000000
     3  O    1.645897   2.654121   0.000000
     4  O    1.628476   2.809273   2.727167   0.000000
     5  Zr   3.020930   4.128918   4.275115   2.050661   0.000000
     6  H    2.237439   0.962946   2.731023   3.345220   4.928279
     7  H    2.226068   3.479411   0.963991   2.775370   4.286784
     8  O    1.690830   2.654577   2.795310   2.511621   2.589889
     9  H    2.292457   2.663547   3.468219   3.221816   3.130868
    10  O    3.954238   5.374568   4.677786   3.353359   1.968646
    11  H    4.214548   5.608242   4.797471   3.960286   2.711971
    12  O    3.765120   4.213884   5.306038   3.377902   1.982527
    13  H    4.625601   4.916541   6.203285   4.114655   2.679569
    14  O    4.615147   5.593932   5.773720   3.178654   1.954989
    15  H    5.460037   6.513877   6.498666   3.982480   2.775779
                    6          7          8          9         10
     6  H    0.000000
     7  H    3.556430   0.000000
     8  O    3.501699   3.268679   0.000000
     9  H    3.566706   4.084341   0.965657   0.000000
    10  O    6.150301   4.465587   3.095339   3.762243   0.000000
    11  H    6.397547   4.639403   3.087374   3.673483   0.962479
    12  O    5.139085   5.626012   2.891849   2.779705   3.317938
    13  H    5.813267   6.519897   3.842076   3.652395   4.024432
    14  O    6.275522   5.608968   4.522587   5.026583   3.102529
    15  H    7.170040   6.227749   5.350819   5.893386   3.464559
                   11         12         13         14         15
    11  H    0.000000
    12  O    3.700168   0.000000
    13  H    4.448737   0.963727   0.000000
    14  O    4.029710   3.123631   3.272652   0.000000
    15  H    4.392562   3.954347   4.018810   0.960601   0.000000
 Stoichiometry    H6O7SiZr
 Framework group  C1[X(H6O7SiZr)]
 Deg. of freedom    39
 Full point group                 C1      NOp   1
 Largest Abelian subgroup         C1      NOp   1
 Largest concise Abelian subgroup C1      NOp   1
                         Standard orientation:                         
 ---------------------------------------------------------------------
 Center     Atomic      Atomic             Coordinates (Angstroms)
 Number     Number       Type             X           Y           Z
 ---------------------------------------------------------------------
      1         14           0       -1.906979   -0.040930   -0.131870
      2          8           0       -2.776609    1.331830   -0.368280
      3          8           0       -2.964720   -1.301380   -0.094090
      4          8           0       -0.625389   -0.321600   -1.096590
      5         40           0        1.112801   -0.017381   -0.051910
      6          1           0       -3.578329    1.237011   -0.893180
      7          1           0       -2.595050   -2.142800   -0.385010
      8          8           0       -1.073459    0.194030    1.320350
      9          1           0       -1.207449    1.041080    1.764250
     10          8           0        1.527280   -1.480041    1.198850
     11          1           0        1.280260   -1.638931    2.115420
     12          8           0        1.263161    1.795019    0.737400
     13          1           0        1.920691    2.469489    0.533650
     14          8           0        2.531821   -0.103711   -1.393890
     15          1           0        3.308881   -0.610772   -1.642530
 ---------------------------------------------------------------------
 Rotational constants (GHZ):           1.7699336           0.6100021           0.5842443
 1\1\GINC-GRA599\FOpt\RB3LYP\Gen\H6O7Si1Zr1\SARASHS\24-Jun-2020\0\\#n B
 3LYP/GEN PSEUDO=READ Opt(modredundant)\\Title\\0,1\Si,-1.90698,-0.0409
 3,-0.13187\O,-2.77661,1.33183,-0.36828\O,-2.96472,-1.30138,-0.09409\O,
 -0.62539,-0.3216,-1.09659\Zr,1.1128,-0.01738,-0.05191\H,-3.57833,1.237
 01,-0.89318\H,-2.59505,-2.1428,-0.38501\O,-1.07346,0.19403,1.32035\H,-
 1.20745,1.04108,1.76425\O,1.52728,-1.48004,1.19885\H,1.28026,-1.63893,
 2.11542\O,1.26316,1.79502,0.7374\H,1.92069,2.46949,0.53365\O,2.53182,-
 0.10371,-1.39389\H,3.30888,-0.61077,-1.64253\\Version=ES64L-G16RevB.01
 \State=1-A\HF=-866.6889967\RMSD=2.240e-09\RMSF=1.854e-05\Dipole=0.0474
 989,-0.0555058,0.2239427\Quadrupole=2.8240785,-0.4946001,-2.3294785,0.
 6937081,1.2770756,1.0256933\PG=C01 [X(H6O7Si1Zr1)]\\@


 THE MOST BEAUTIFUL EXPERIENCE WE CAN HAVE IS THE MYSTERIOUS.
 IT IS THE FUNDAMENTAL EMOTION WHICH STANDS AT AT THE CRADLE 
 OF TRUE ART AND TRUE SCIENCE.

                                    -- ALBERT EINSTEIN
 Job cpu time:       0 days  0 hours  3 minutes  4.6 seconds.
 Elapsed time:       0 days  0 hours  0 minutes 11.8 seconds.
 File lengths (MBytes):  RWF=     19 Int=      0 D2E=      0 Chk=      3 Scr=      1
 Normal termination of Gaussian 16 at Wed Jun 24 13:54:58 2020.
