 Entering Gaussian System, Link 0=g16
 Initial command:
 /opt/software/gaussian/g16.b01/l1.exe "/localscratch/sarashs.33453160.0/Gau-24292.inp" -scrdir="/localscratch/sarashs.33453160.0/"
 Entering Link 1 = /opt/software/gaussian/g16.b01/l1.exe PID=     24293.
  
 Copyright (c) 1988-2017, Gaussian, Inc.  All Rights Reserved.
  
 This is part of the Gaussian(R) 16 program.  It is based on
 the Gaussian(R) 09 system (copyright 2009, Gaussian, Inc.),
 the Gaussian(R) 03 system (copyright 2003, Gaussian, Inc.),
 the Gaussian(R) 98 system (copyright 1998, Gaussian, Inc.),
 the Gaussian(R) 94 system (copyright 1995, Gaussian, Inc.),
 the Gaussian 92(TM) system (copyright 1992, Gaussian, Inc.),
 the Gaussian 90(TM) system (copyright 1990, Gaussian, Inc.),
 the Gaussian 88(TM) system (copyright 1988, Gaussian, Inc.),
 the Gaussian 86(TM) system (copyright 1986, Carnegie Mellon
 University), and the Gaussian 82(TM) system (copyright 1983,
 Carnegie Mellon University). Gaussian is a federally registered
 trademark of Gaussian, Inc.
  
 This software contains proprietary and confidential information,
 including trade secrets, belonging to Gaussian, Inc.
  
 This software is provided under written license and may be
 used, copied, transmitted, or stored only in accord with that
 written license.
  
 The following legend is applicable only to US Government
 contracts under FAR:
  
                    RESTRICTED RIGHTS LEGEND
  
 Use, reproduction and disclosure by the US Government is
 subject to restrictions as set forth in subparagraphs (a)
 and (c) of the Commercial Computer Software - Restricted
 Rights clause in FAR 52.227-19.
  
 Gaussian, Inc.
 340 Quinnipiac St., Bldg. 40, Wallingford CT 06492
  
  
 ---------------------------------------------------------------
 Warning -- This program may not be used in any manner that
 competes with the business of Gaussian, Inc. or will provide
 assistance to any competitor of Gaussian, Inc.  The licensee
 of this program is prohibited from giving any competitor of
 Gaussian, Inc. access to this program.  By using this program,
 the user acknowledges that Gaussian, Inc. is engaged in the
 business of creating and licensing software in the field of
 computational chemistry and represents and warrants to the
 licensee that it is not a competitor of Gaussian, Inc. and that
 it will not use this program in any manner prohibited above.
 ---------------------------------------------------------------
  

 Cite this work as:
 Gaussian 16, Revision B.01,
 M. J. Frisch, G. W. Trucks, H. B. Schlegel, G. E. Scuseria, 
 M. A. Robb, J. R. Cheeseman, G. Scalmani, V. Barone, 
 G. A. Petersson, H. Nakatsuji, X. Li, M. Caricato, A. V. Marenich, 
 J. Bloino, B. G. Janesko, R. Gomperts, B. Mennucci, H. P. Hratchian, 
 J. V. Ortiz, A. F. Izmaylov, J. L. Sonnenberg, D. Williams-Young, 
 F. Ding, F. Lipparini, F. Egidi, J. Goings, B. Peng, A. Petrone, 
 T. Henderson, D. Ranasinghe, V. G. Zakrzewski, J. Gao, N. Rega, 
 G. Zheng, W. Liang, M. Hada, M. Ehara, K. Toyota, R. Fukuda, 
 J. Hasegawa, M. Ishida, T. Nakajima, Y. Honda, O. Kitao, H. Nakai, 
 T. Vreven, K. Throssell, J. A. Montgomery, Jr., J. E. Peralta, 
 F. Ogliaro, M. J. Bearpark, J. J. Heyd, E. N. Brothers, K. N. Kudin, 
 V. N. Staroverov, T. A. Keith, R. Kobayashi, J. Normand, 
 K. Raghavachari, A. P. Rendell, J. C. Burant, S. S. Iyengar, 
 J. Tomasi, M. Cossi, J. M. Millam, M. Klene, C. Adamo, R. Cammi, 
 J. W. Ochterski, R. L. Martin, K. Morokuma, O. Farkas, 
 J. B. Foresman, and D. J. Fox, Gaussian, Inc., Wallingford CT, 2016.
 
 ******************************************
 Gaussian 16:  ES64L-G16RevB.01 20-Dec-2017
                24-Jun-2020 
 ******************************************
 %NProcShared=16
 Will use up to   16 processors via shared memory.
 ------------------------------------------
 #n B3LYP/GEN PSEUDO=READ Opt(modredundant)
 ------------------------------------------
 1/18=120,19=15,26=3,38=1/1,3;
 2/9=110,12=2,17=6,18=5,40=1/2;
 3/5=7,11=2,16=1,17=8,25=1,30=1,71=1,74=-5/1,2,3;
 4//1;
 5/5=2,38=5/2;
 6/7=2,8=2,9=2,10=2,28=1/1;
 7//1,2,3,16;
 1/18=20,19=15,26=3/3(2);
 2/9=110/2;
 99//99;
 2/9=110/2;
 3/5=7,6=1,11=2,16=1,17=8,25=1,30=1,71=1,74=-5,82=7/1,2,3;
 4/5=5,16=3,69=1/1;
 5/5=2,38=5/2;
 7//1,2,3,16;
 1/18=20,19=15,26=3/3(-5);
 2/9=110/2;
 6/7=2,8=2,9=2,10=2,19=2,28=1/1;
 99/9=1/99;
 -----
 Title
 -----
 Symbolic Z-matrix:
 Charge =  0 Multiplicity = 1
 Si                   -1.90698  -0.04093  -0.13187 
 O                    -2.77661   1.33183  -0.36828 
 O                    -2.96472  -1.30138  -0.09409 
 O                    -0.62539  -0.3216   -1.09659 
 Zr                    1.26103  -0.04897  -0.34008 
 H                    -3.57833   1.23701  -0.89318 
 H                    -2.59505  -2.1428   -0.38501 
 O                    -1.07346   0.19403   1.32035 
 H                    -1.20745   1.04108   1.76425 
 O                     1.83226  -1.50744   0.85246 
 H                     1.72778  -1.64994   1.79857 
 O                     1.57395   1.76783   0.38914 
 H                     2.2068    2.42348   0.07544 
 O                     2.45085  -0.18539  -1.88529 
 H                     3.16782  -0.7143   -2.24438 
 
 The following ModRedundant input section has been read:
 A       1       4       5 F                                                   
 

 GradGradGradGradGradGradGradGradGradGradGradGradGradGradGradGradGradGrad
 Berny optimization.
 Initialization pass.
                           ----------------------------
                           !    Initial Parameters    !
                           ! (Angstroms and Degrees)  !
 --------------------------                            --------------------------
 ! Name  Definition              Value          Derivative Info.                !
 --------------------------------------------------------------------------------
 ! R1    R(1,2)                  1.6421         estimate D2E/DX2                !
 ! R2    R(1,3)                  1.6459         estimate D2E/DX2                !
 ! R3    R(1,4)                  1.6285         estimate D2E/DX2                !
 ! R4    R(1,8)                  1.6908         estimate D2E/DX2                !
 ! R5    R(2,6)                  0.9629         estimate D2E/DX2                !
 ! R6    R(3,7)                  0.964          estimate D2E/DX2                !
 ! R7    R(4,5)                  2.0507         estimate D2E/DX2                !
 ! R8    R(5,10)                 1.9687         estimate D2E/DX2                !
 ! R9    R(5,12)                 1.9825         estimate D2E/DX2                !
 ! R10   R(5,14)                 1.955          estimate D2E/DX2                !
 ! R11   R(8,9)                  0.9657         estimate D2E/DX2                !
 ! R12   R(10,11)                0.9625         estimate D2E/DX2                !
 ! R13   R(12,13)                0.9637         estimate D2E/DX2                !
 ! R14   R(14,15)                0.9606         estimate D2E/DX2                !
 ! A1    A(2,1,3)              107.6477         estimate D2E/DX2                !
 ! A2    A(2,1,4)              118.3958         estimate D2E/DX2                !
 ! A3    A(2,1,8)              105.5776         estimate D2E/DX2                !
 ! A4    A(3,1,4)              112.7909         estimate D2E/DX2                !
 ! A5    A(3,1,8)              113.7977         estimate D2E/DX2                !
 ! A6    A(4,1,8)               98.3257         estimate D2E/DX2                !
 ! A7    A(1,2,6)              115.9167         estimate D2E/DX2                !
 ! A8    A(1,3,7)              114.5237         estimate D2E/DX2                !
 ! A9    A(1,4,5)              118.8486         Frozen                          !
 ! A10   A(4,5,10)             113.0729         estimate D2E/DX2                !
 ! A11   A(4,5,12)             113.7485         estimate D2E/DX2                !
 ! A12   A(4,5,14)             105.0109         estimate D2E/DX2                !
 ! A13   A(10,5,12)            114.2238         estimate D2E/DX2                !
 ! A14   A(10,5,14)            104.5072         estimate D2E/DX2                !
 ! A15   A(12,5,14)            104.9876         estimate D2E/DX2                !
 ! A16   A(1,8,9)              116.6352         estimate D2E/DX2                !
 ! A17   A(5,10,11)            132.35           estimate D2E/DX2                !
 ! A18   A(5,12,13)            127.3995         estimate D2E/DX2                !
 ! A19   A(5,14,15)            142.0124         estimate D2E/DX2                !
 ! D1    D(3,1,2,6)            -31.5445         estimate D2E/DX2                !
 ! D2    D(4,1,2,6)             97.8074         estimate D2E/DX2                !
 ! D3    D(8,1,2,6)           -153.4334         estimate D2E/DX2                !
 ! D4    D(2,1,3,7)            151.7162         estimate D2E/DX2                !
 ! D5    D(4,1,3,7)             19.2636         estimate D2E/DX2                !
 ! D6    D(8,1,3,7)            -91.6497         estimate D2E/DX2                !
 ! D7    D(2,1,4,5)            105.0192         estimate D2E/DX2                !
 ! D8    D(3,1,4,5)           -128.0421         estimate D2E/DX2                !
 ! D9    D(8,1,4,5)             -7.7883         estimate D2E/DX2                !
 ! D10   D(2,1,8,9)             -0.7356         estimate D2E/DX2                !
 ! D11   D(3,1,8,9)           -118.5698         estimate D2E/DX2                !
 ! D12   D(4,1,8,9)            121.931          estimate D2E/DX2                !
 ! D13   D(1,4,5,10)            76.2225         estimate D2E/DX2                !
 ! D14   D(1,4,5,12)           -56.205          estimate D2E/DX2                !
 ! D15   D(1,4,5,14)          -170.4411         estimate D2E/DX2                !
 ! D16   D(4,5,10,11)          -88.2375         estimate D2E/DX2                !
 ! D17   D(12,5,10,11)          43.9577         estimate D2E/DX2                !
 ! D18   D(14,5,10,11)         158.1208         estimate D2E/DX2                !
 ! D19   D(4,5,12,13)         -116.9748         estimate D2E/DX2                !
 ! D20   D(10,5,12,13)         111.1545         estimate D2E/DX2                !
 ! D21   D(14,5,12,13)          -2.7248         estimate D2E/DX2                !
 ! D22   D(4,5,14,15)         -117.1594         estimate D2E/DX2                !
 ! D23   D(10,5,14,15)           2.0823         estimate D2E/DX2                !
 ! D24   D(12,5,14,15)         122.6138         estimate D2E/DX2                !
 --------------------------------------------------------------------------------
 Trust Radius=3.00D-01 FncErr=1.00D-07 GrdErr=1.00D-06 EigMax=2.50D+02 EigMin=1.00D-04
 Number of steps in this run=     67 maximum allowed number of steps=    100.
 GradGradGradGradGradGradGradGradGradGradGradGradGradGradGradGradGradGrad

                          Input orientation:                          
 ---------------------------------------------------------------------
 Center     Atomic      Atomic             Coordinates (Angstroms)
 Number     Number       Type             X           Y           Z
 ---------------------------------------------------------------------
      1         14           0       -1.906980   -0.040930   -0.131870
      2          8           0       -2.776610    1.331830   -0.368280
      3          8           0       -2.964720   -1.301380   -0.094090
      4          8           0       -0.625390   -0.321600   -1.096590
      5         40           0        1.261030   -0.048970   -0.340080
      6          1           0       -3.578330    1.237010   -0.893180
      7          1           0       -2.595050   -2.142800   -0.385010
      8          8           0       -1.073460    0.194030    1.320350
      9          1           0       -1.207450    1.041080    1.764250
     10          8           0        1.832260   -1.507440    0.852460
     11          1           0        1.727780   -1.649940    1.798570
     12          8           0        1.573950    1.767830    0.389140
     13          1           0        2.206800    2.423480    0.075440
     14          8           0        2.450850   -0.185390   -1.885290
     15          1           0        3.167820   -0.714300   -2.244380
 ---------------------------------------------------------------------
                    Distance matrix (angstroms):
                    1          2          3          4          5
     1  Si   0.000000
     2  O    1.642138   0.000000
     3  O    1.645897   2.654121   0.000000
     4  O    1.628476   2.809273   2.727167   0.000000
     5  Zr   3.174855   4.267311   4.414296   2.050662   0.000000
     6  H    2.237439   0.962946   2.731023   3.345220   5.037764
     7  H    2.226068   3.479411   0.963991   2.775370   4.388108
     8  O    1.690830   2.654577   2.795310   2.511621   2.875051
     9  H    2.292457   2.663547   3.468219   3.221816   3.421960
    10  O    4.135393   5.549175   4.893816   3.353365   1.968652
    11  H    4.418936   5.820285   5.071806   3.960284   2.711971
    12  O    3.957264   4.437472   5.500281   3.377900   1.982534
    13  H    4.799946   5.120836   6.375574   4.114659   2.679580
    14  O    4.699578   5.650630   5.812248   3.178656   1.954982
    15  H    5.538025   6.560690   6.525064   3.982471   2.775765
                    6          7          8          9         10
     6  H    0.000000
     7  H    3.556430   0.000000
     8  O    3.501699   3.268679   0.000000
     9  H    3.566706   4.084341   0.965657   0.000000
    10  O    6.312983   4.640699   3.399578   4.070154   0.000000
    11  H    6.613229   4.868038   3.387605   3.982253   0.962469
    12  O    5.335926   5.768266   3.217573   3.186735   3.317949
    13  H    5.984452   6.642341   4.156965   4.052186   4.024447
    14  O    6.273637   5.616351   4.779210   5.310982   3.102538
    15  H    7.151496   6.221619   5.614341   6.188171   3.464565
                   11         12         13         14         15
    11  H    0.000000
    12  O    3.700177   0.000000
    13  H    4.448751   0.963734   0.000000
    14  O    4.029710   3.123628   3.272648   0.000000
    15  H    4.392560   3.954342   4.018804   0.960592   0.000000
 Stoichiometry    H6O7SiZr
 Framework group  C1[X(H6O7SiZr)]
 Deg. of freedom    39
 Full point group                 C1      NOp   1
 Largest Abelian subgroup         C1      NOp   1
 Largest concise Abelian subgroup C1      NOp   1
                         Standard orientation:                         
 ---------------------------------------------------------------------
 Center     Atomic      Atomic             Coordinates (Angstroms)
 Number     Number       Type             X           Y           Z
 ---------------------------------------------------------------------
      1         14           0       -1.997387   -0.042768   -0.114306
      2          8           0       -2.857715    1.315612   -0.447853
      3          8           0       -3.040599   -1.315341   -0.149528
      4          8           0       -0.632952   -0.322048   -0.958257
      5         40           0        1.176559   -0.015210   -0.043526
      6          1           0       -3.609092    1.203233   -1.039520
      7          1           0       -2.637661   -2.156407   -0.393509
      8          8           0       -1.297405    0.223870    1.401555
      9          1           0       -1.479104    1.075712    1.818501
     10          8           0        1.656510   -1.448744    1.217512
     11          1           0        1.470788   -1.578459    2.152941
     12          8           0        1.404389    1.815893    0.681455
     13          1           0        2.055216    2.474497    0.414153
     14          8           0        2.499067   -0.159998   -1.475995
     15          1           0        3.250539   -0.685382   -1.762347
 ---------------------------------------------------------------------
 Rotational constants (GHZ):           1.7438160           0.5673874           0.5474990
 General basis read from cards:  (5D, 7F)
 ======================================================================================================
                                       Pseudopotential Parameters
 ======================================================================================================
  Center     Atomic      Valence      Angular      Power
  Number     Number     Electrons     Momentum     of R      Exponent        Coefficient   SO-Coeffient
 ======================================================================================================
    1         14
                                   No pseudopotential on this center.
    2          8
                                   No pseudopotential on this center.
    3          8
                                   No pseudopotential on this center.
    4          8
                                   No pseudopotential on this center.
    5         40           12
                                      F and up 
                                                     0      645.9321873       -0.04258430    0.00000000
                                                     1      134.7547401      -20.22224090    0.00000000
                                                     2       42.3074619     -101.86951720    0.00000000
                                                     2       12.0003227      -41.61957840    0.00000000
                                                     2        4.1260454       -4.69861600    0.00000000
                                      S - F
                                                     0      117.6251862        2.79105590    0.00000000
                                                     1       22.9646089       41.94894590    0.00000000
                                                     2        4.5225298       67.72718660    0.00000000
                                      P - F
                                                     0       47.1953145        4.99111440    0.00000000
                                                     1       48.0356033       20.71931720    0.00000000
                                                     2       19.4541456      195.58677580    0.00000000
                                                     2        4.0512875       48.28771760    0.00000000
                                      D - F
                                                     0       79.9073983        3.00492260    0.00000000
                                                     1       45.8263798       25.93779890    0.00000000
                                                     2       26.9903522      125.12449340    0.00000000
                                                     2        9.6835718       70.76340220    0.00000000
                                                     2        2.7995666       15.04928220    0.00000000
    6          1
                                   No pseudopotential on this center.
    7          1
                                   No pseudopotential on this center.
    8          8
                                   No pseudopotential on this center.
    9          1
                                   No pseudopotential on this center.
   10          8
                                   No pseudopotential on this center.
   11          1
                                   No pseudopotential on this center.
   12          8
                                   No pseudopotential on this center.
   13          1
                                   No pseudopotential on this center.
   14          8
                                   No pseudopotential on this center.
   15          1
                                   No pseudopotential on this center.
 ======================================================================================================
 There are   178 symmetry adapted cartesian basis functions of A   symmetry.
 There are   168 symmetry adapted basis functions of A   symmetry.
   168 basis functions,   339 primitive gaussians,   178 cartesian basis functions
    44 alpha electrons       44 beta electrons
       nuclear repulsion energy       652.5634025169 Hartrees.
 NAtoms=   15 NActive=   15 NUniq=   15 SFac= 1.00D+00 NAtFMM=   60 NAOKFM=F Big=F
 Integral buffers will be    131072 words long.
 Raffenetti 2 integral format.
 Two-electron integral symmetry is turned on.
 One-electron integrals computed using PRISM.
   1 Symmetry operations used in ECPInt.
 ECPInt:  NShTT=    1770 NPrTT=   10201 LenC2=    1655 LenP2D=    6658.
 LDataN:  DoStor=T MaxTD1= 5 Len=  102
 NBasis=   168 RedAO= T EigKep=  1.05D-02  NBF=   168
 NBsUse=   168 1.00D-06 EigRej= -1.00D+00 NBFU=   168
 Defaulting to unpruned grid for atomic number  40.
 ExpMin= 2.43D-02 ExpMax= 1.61D+04 ExpMxC= 2.43D+03 IAcc=3 IRadAn=         5 AccDes= 0.00D+00
 Harris functional with IExCor=  402 and IRadAn=       5 diagonalized for initial guess.
 HarFok:  IExCor=  402 AccDes= 0.00D+00 IRadAn=         5 IDoV= 1 UseB2=F ITyADJ=14
 ICtDFT=  3500011 ScaDFX=  1.000000  1.000000  1.000000  1.000000
 Defaulting to unpruned grid for atomic number  40.
 FoFCou: FMM=F IPFlag=           0 FMFlag=      100000 FMFlg1=           0
         NFxFlg=           0 DoJE=T BraDBF=F KetDBF=T FulRan=T
         wScrn=  0.000000 ICntrl=       500 IOpCl=  0 I1Cent=   200000004 NGrid=           0
         NMat0=    1 NMatS0=      1 NMatT0=    0 NMatD0=    1 NMtDS0=    0 NMtDT0=    0
 Petite list used in FoFCou.
 Requested convergence on RMS density matrix=1.00D-08 within 128 cycles.
 Requested convergence on MAX density matrix=1.00D-06.
 Requested convergence on             energy=1.00D-06.
 No special actions if energy rises.
 Defaulting to unpruned grid for atomic number  40.
 Defaulting to unpruned grid for atomic number  40.
 Defaulting to unpruned grid for atomic number  40.
 Defaulting to unpruned grid for atomic number  40.
 Defaulting to unpruned grid for atomic number  40.
 Defaulting to unpruned grid for atomic number  40.
 Defaulting to unpruned grid for atomic number  40.
 Defaulting to unpruned grid for atomic number  40.
 Defaulting to unpruned grid for atomic number  40.
 Defaulting to unpruned grid for atomic number  40.
 Defaulting to unpruned grid for atomic number  40.
 Defaulting to unpruned grid for atomic number  40.
 Defaulting to unpruned grid for atomic number  40.
 Defaulting to unpruned grid for atomic number  40.
 Defaulting to unpruned grid for atomic number  40.
 Defaulting to unpruned grid for atomic number  40.
 SCF Done:  E(RB3LYP) =  -866.686574347     A.U. after   15 cycles
            NFock= 15  Conv=0.26D-08     -V/T= 2.0446

 **********************************************************************

            Population analysis using the SCF Density.

 **********************************************************************

 Orbital symmetries:
       Occupied  (A) (A) (A) (A) (A) (A) (A) (A) (A) (A) (A) (A)
                 (A) (A) (A) (A) (A) (A) (A) (A) (A) (A) (A) (A)
                 (A) (A) (A) (A) (A) (A) (A) (A) (A) (A) (A) (A)
                 (A) (A) (A) (A) (A) (A) (A) (A)
       Virtual   (A) (A) (A) (A) (A) (A) (A) (A) (A) (A) (A) (A)
                 (A) (A) (A) (A) (A) (A) (A) (A) (A) (A) (A) (A)
                 (A) (A) (A) (A) (A) (A) (A) (A) (A) (A) (A) (A)
                 (A) (A) (A) (A) (A) (A) (A) (A) (A) (A) (A) (A)
                 (A) (A) (A) (A) (A) (A) (A) (A) (A) (A) (A) (A)
                 (A) (A) (A) (A) (A) (A) (A) (A) (A) (A) (A) (A)
                 (A) (A) (A) (A) (A) (A) (A) (A) (A) (A) (A) (A)
                 (A) (A) (A) (A) (A) (A) (A) (A) (A) (A) (A) (A)
                 (A) (A) (A) (A) (A) (A) (A) (A) (A) (A) (A) (A)
                 (A) (A) (A) (A) (A) (A) (A) (A) (A) (A) (A) (A)
                 (A) (A) (A) (A)
 The electronic state is 1-A.
 Alpha  occ. eigenvalues --  -66.19320 -19.15205 -19.15100 -19.15014 -19.13928
 Alpha  occ. eigenvalues --  -19.13517 -19.13384 -19.11946  -5.33629  -3.69615
 Alpha  occ. eigenvalues --   -3.69561  -3.69501  -2.06158  -1.26801  -1.26720
 Alpha  occ. eigenvalues --   -1.26214  -1.02813  -0.99835  -0.99478  -0.95514
 Alpha  occ. eigenvalues --   -0.94807  -0.94285  -0.92698  -0.57301  -0.52316
 Alpha  occ. eigenvalues --   -0.51743  -0.48422  -0.47414  -0.46840  -0.43387
 Alpha  occ. eigenvalues --   -0.38887  -0.37994  -0.37328  -0.35704  -0.34823
 Alpha  occ. eigenvalues --   -0.34173  -0.33647  -0.33309  -0.32114  -0.31795
 Alpha  occ. eigenvalues --   -0.30898  -0.30737  -0.29786  -0.29598
 Alpha virt. eigenvalues --   -0.02016  -0.01360  -0.00100   0.00459   0.01579
 Alpha virt. eigenvalues --    0.01984   0.02454   0.02919   0.03746   0.08460
 Alpha virt. eigenvalues --    0.09398   0.11242   0.14640   0.15165   0.16088
 Alpha virt. eigenvalues --    0.17002   0.17964   0.19190   0.19732   0.23338
 Alpha virt. eigenvalues --    0.23691   0.24351   0.24867   0.26589   0.28548
 Alpha virt. eigenvalues --    0.29565   0.31544   0.33435   0.37548   0.39180
 Alpha virt. eigenvalues --    0.42286   0.56691   0.64529   0.72383   0.79083
 Alpha virt. eigenvalues --    0.80447   0.84030   0.85824   0.86956   0.89283
 Alpha virt. eigenvalues --    0.91026   0.91932   0.93333   0.94992   0.95685
 Alpha virt. eigenvalues --    0.97707   0.98987   0.99711   1.00913   1.04460
 Alpha virt. eigenvalues --    1.06682   1.07875   1.08183   1.09762   1.12043
 Alpha virt. eigenvalues --    1.13641   1.16890   1.17732   1.20090   1.21071
 Alpha virt. eigenvalues --    1.24059   1.25665   1.26711   1.37192   1.46889
 Alpha virt. eigenvalues --    1.48207   1.50118   1.52096   1.53726   1.57131
 Alpha virt. eigenvalues --    1.57547   1.58361   1.60698   1.61619   1.63091
 Alpha virt. eigenvalues --    1.63699   1.64376   1.66362   1.69124   1.70573
 Alpha virt. eigenvalues --    1.72956   1.76088   1.79848   1.80118   1.81415
 Alpha virt. eigenvalues --    1.82309   1.83294   1.85173   1.86508   1.88058
 Alpha virt. eigenvalues --    1.90666   1.92723   2.01116   2.08912   2.13736
 Alpha virt. eigenvalues --    2.35832   2.36129   2.36504   2.36917   2.38204
 Alpha virt. eigenvalues --    2.39264   2.43452   2.56301   2.59716   2.62035
 Alpha virt. eigenvalues --    2.62850   2.63891   2.64253   2.64534   2.64650
 Alpha virt. eigenvalues --    2.64751   2.65020   2.65620   2.66941   2.72824
 Alpha virt. eigenvalues --    2.77609   2.82528   3.41161   3.41562   3.42705
 Alpha virt. eigenvalues --    3.44057   3.45248   3.46285   3.97272
          Condensed to atoms (all electrons):
               1          2          3          4          5          6
     1  Si  11.540453   0.388114   0.395036   0.347864  -0.077519  -0.021893
     2  O    0.388114   7.952775  -0.020277  -0.010463   0.003284   0.303936
     3  O    0.395036  -0.020277   7.944217  -0.016857  -0.001100  -0.000939
     4  O    0.347864  -0.010463  -0.016857   8.276499   0.187835  -0.000302
     5  Zr  -0.077519   0.003284  -0.001100   0.187835   9.758746  -0.000924
     6  H   -0.021893   0.303936  -0.000939  -0.000302  -0.000924   0.381544
     7  H   -0.018816   0.000385   0.301831   0.001195  -0.002402  -0.000042
     8  O    0.269848  -0.018564  -0.013112  -0.039863   0.103643   0.000627
     9  H   -0.012018   0.000782  -0.000185   0.001083  -0.009369   0.000022
    10  O   -0.004748  -0.000000   0.000001   0.000290   0.221557  -0.000000
    11  H    0.000056  -0.000000   0.000000  -0.000071  -0.016204   0.000000
    12  O   -0.005189   0.000004   0.000000   0.000426   0.223250   0.000000
    13  H    0.000250  -0.000001   0.000000  -0.000013  -0.017230  -0.000000
    14  O   -0.000143   0.000000  -0.000000   0.000616   0.212643   0.000000
    15  H   -0.000025   0.000000  -0.000000  -0.000056  -0.014931  -0.000000
               7          8          9         10         11         12
     1  Si  -0.018816   0.269848  -0.012018  -0.004748   0.000056  -0.005189
     2  O    0.000385  -0.018564   0.000782  -0.000000  -0.000000   0.000004
     3  O    0.301831  -0.013112  -0.000185   0.000001   0.000000   0.000000
     4  O    0.001195  -0.039863   0.001083   0.000290  -0.000071   0.000426
     5  Zr  -0.002402   0.103643  -0.009369   0.221557  -0.016204   0.223250
     6  H   -0.000042   0.000627   0.000022  -0.000000   0.000000   0.000000
     7  H    0.383549  -0.000234   0.000050  -0.000001  -0.000000  -0.000000
     8  O   -0.000234   8.039054   0.296835  -0.001434  -0.000329  -0.002268
     9  H    0.000050   0.296835   0.374495  -0.000036  -0.000002   0.000542
    10  O   -0.000001  -0.001434  -0.000036   8.178827   0.294708   0.000824
    11  H   -0.000000  -0.000329  -0.000002   0.294708   0.389972  -0.000295
    12  O   -0.000000  -0.002268   0.000542   0.000824  -0.000295   8.185177
    13  H   -0.000000   0.000069  -0.000028  -0.000055  -0.000000   0.292321
    14  O   -0.000000  -0.000011   0.000001   0.000828   0.000001   0.000525
    15  H    0.000000  -0.000001  -0.000000  -0.000560   0.000001  -0.000111
              13         14         15
     1  Si   0.000250  -0.000143  -0.000025
     2  O   -0.000001   0.000000   0.000000
     3  O    0.000000  -0.000000  -0.000000
     4  O   -0.000013   0.000616  -0.000056
     5  Zr  -0.017230   0.212643  -0.014931
     6  H   -0.000000   0.000000  -0.000000
     7  H   -0.000000  -0.000000   0.000000
     8  O    0.000069  -0.000011  -0.000001
     9  H   -0.000028   0.000001  -0.000000
    10  O   -0.000055   0.000828  -0.000560
    11  H   -0.000000   0.000001   0.000001
    12  O    0.292321   0.000525  -0.000111
    13  H    0.395473  -0.001475  -0.000005
    14  O   -0.001475   8.175759   0.299640
    15  H   -0.000005   0.299640   0.381815
 Mulliken charges:
               1
     1  Si   1.198729
     2  O   -0.599976
     3  O   -0.588615
     4  O   -0.748183
     5  Zr   1.428720
     6  H    0.337970
     7  H    0.334484
     8  O   -0.634259
     9  H    0.347827
    10  O   -0.690200
    11  H    0.332164
    12  O   -0.695204
    13  H    0.330693
    14  O   -0.688384
    15  H    0.334233
 Sum of Mulliken charges =  -0.00000
 Mulliken charges with hydrogens summed into heavy atoms:
               1
     1  Si   1.198729
     2  O   -0.262006
     3  O   -0.254131
     4  O   -0.748183
     5  Zr   1.428720
     8  O   -0.286432
    10  O   -0.358036
    12  O   -0.364511
    14  O   -0.354151
 Electronic spatial extent (au):  <R**2>=           1989.9107
 Charge=             -0.0000 electrons
 Dipole moment (field-independent basis, Debye):
    X=              0.6452    Y=             -0.1841    Z=              0.2035  Tot=              0.7012
 Quadrupole moment (field-independent basis, Debye-Ang):
   XX=            -65.4449   YY=            -69.3119   ZZ=            -70.8940
   XY=              0.5931   XZ=              1.7795   YZ=              1.2415
 Traceless Quadrupole moment (field-independent basis, Debye-Ang):
   XX=              3.1054   YY=             -0.7616   ZZ=             -2.3438
   XY=              0.5931   XZ=              1.7795   YZ=              1.2415
 Octapole moment (field-independent basis, Debye-Ang**2):
  XXX=             45.2585  YYY=             -4.0452  ZZZ=             16.1835  XYY=             10.6460
  XXY=             13.3814  XXZ=            -29.9851  XZZ=              8.4774  YZZ=             -4.7517
  YYZ=             -2.4327  XYZ=              1.7884
 Hexadecapole moment (field-independent basis, Debye-Ang**3):
 XXXX=          -1486.8406 YYYY=           -371.9723 ZZZZ=           -320.6530 XXXY=            -67.9749
 XXXZ=             17.1409 YYYX=             77.4508 YYYZ=              7.5277 ZZZX=              8.8800
 ZZZY=            -10.7552 XXYY=           -301.8063 XXZZ=           -279.9081 YYZZ=           -111.8335
 XXYZ=             19.7646 YYXZ=             -0.3925 ZZXY=            -41.9902
 N-N= 6.525634025169D+02 E-N=-3.341560348546D+03  KE= 8.297121503085D+02
   1 Symmetry operations used in ECPInt.
 ECPInt:  NShTT=    1770 NPrTT=   10201 LenC2=    1655 LenP2D=    6658.
 LDataN:  DoStor=T MaxTD1= 6 Len=  172
 Calling FoFJK, ICntrl=      2127 FMM=F ISym2X=0 I1Cent= 0 IOpClX= 0 NMat=1 NMatS=1 NMatT=0.
 Defaulting to unpruned grid for atomic number  40.
 Defaulting to unpruned grid for atomic number  40.
 Defaulting to unpruned grid for atomic number  40.
 Defaulting to unpruned grid for atomic number  40.
 Defaulting to unpruned grid for atomic number  40.
 Defaulting to unpruned grid for atomic number  40.
 Defaulting to unpruned grid for atomic number  40.
 Defaulting to unpruned grid for atomic number  40.
 Defaulting to unpruned grid for atomic number  40.
 Defaulting to unpruned grid for atomic number  40.
 Defaulting to unpruned grid for atomic number  40.
 Defaulting to unpruned grid for atomic number  40.
 Defaulting to unpruned grid for atomic number  40.
 Defaulting to unpruned grid for atomic number  40.
 Defaulting to unpruned grid for atomic number  40.
 Defaulting to unpruned grid for atomic number  40.
 ***** Axes restored to original set *****
 -------------------------------------------------------------------
 Center     Atomic                   Forces (Hartrees/Bohr)
 Number     Number              X              Y              Z
 -------------------------------------------------------------------
      1       14           0.010781314    0.002119038    0.009455976
      2        8          -0.000732845    0.000562037   -0.001360578
      3        8          -0.000223879   -0.000664374   -0.001080836
      4        8           0.004355422   -0.000990440   -0.005152452
      5       40          -0.008104063    0.000870922   -0.004329472
      6        1          -0.000003370    0.000080553   -0.000039689
      7        1          -0.000048341    0.000103139    0.000121171
      8        8           0.000075822    0.001160599   -0.000617553
      9        1          -0.001449569   -0.001465056   -0.000505159
     10        8          -0.002064061    0.002097282    0.001098879
     11        1           0.000527518   -0.000738064    0.000440406
     12        8          -0.001204552   -0.004065631   -0.000508408
     13        1          -0.000321367    0.000477532    0.000503030
     14        8          -0.001620896    0.000879480    0.001479266
     15        1           0.000032866   -0.000427017    0.000495420
 -------------------------------------------------------------------
 Cartesian Forces:  Max     0.010781314 RMS     0.002937045

 GradGradGradGradGradGradGradGradGradGradGradGradGradGradGradGradGradGrad
 Berny optimization.
 FormGI is forming the generalized inverse of G from B-inverse, IUseBI=4.
 Internal  Forces:  Max     0.022887625 RMS     0.003668874
 Search for a local minimum.
 Step number   1 out of a maximum of   67
 All quantities printed in internal units (Hartrees-Bohrs-Radians)
 Mixed Optimization -- RFO/linear search
 Second derivative matrix not updated -- first step.
 ITU=  0
     Eigenvalues ---    0.00230   0.00230   0.00230   0.00230   0.03138
     Eigenvalues ---    0.03732   0.03782   0.03962   0.07595   0.10447
     Eigenvalues ---    0.11446   0.11649   0.12384   0.13641   0.15842
     Eigenvalues ---    0.16000   0.16000   0.16000   0.16000   0.16000
     Eigenvalues ---    0.16000   0.18952   0.19683   0.19789   0.19910
     Eigenvalues ---    0.19986   0.20440   0.21460   0.37017   0.43277
     Eigenvalues ---    0.43863   0.46083   0.54274   0.54624   0.54678
     Eigenvalues ---    0.54844   0.54946   0.553461000.000001000.00000
     Eigenvalues --- 1000.000001000.000001000.000001000.000001000.00000
     Eigenvalues --- 1000.000001000.000001000.000001000.000001000.00000
     Eigenvalues --- 1000.000001000.000001000.000001000.000001000.00000
     Eigenvalues --- 1000.000001000.00000
 RFO step:  Lambda=-1.75621548D-03 EMin= 2.30000000D-03
 Linear search not attempted -- first point.
 Iteration  1 RMS(Cart)=  0.04779582 RMS(Int)=  0.00054930
 Iteration  2 RMS(Cart)=  0.00098112 RMS(Int)=  0.00012619
 Iteration  3 RMS(Cart)=  0.00000029 RMS(Int)=  0.00012619
 Iteration  1 RMS(Cart)=  0.00000000 RMS(Int)=  0.00000000
 Variable       Old X    -DE/DX   Delta X   Delta X   Delta X     New X
                                 (Linear)    (Quad)   (Total)
    R1        3.10319   0.00113   0.00000   0.00256   0.00256   3.10575
    R2        3.11029   0.00058   0.00000   0.00134   0.00134   3.11164
    R3        3.07737  -0.00274   0.00000  -0.00593  -0.00593   3.07144
    R4        3.19520  -0.00168   0.00000  -0.00453  -0.00453   3.19068
    R5        1.81970   0.00002   0.00000   0.00003   0.00003   1.81974
    R6        1.82168  -0.00015   0.00000  -0.00026  -0.00026   1.82141
    R7        3.87519  -0.01216   0.00000  -0.07589  -0.07589   3.79930
    R8        3.72021  -0.00052   0.00000  -0.00262  -0.00262   3.71759
    R9        3.74645  -0.00353   0.00000  -0.01846  -0.01846   3.72799
   R10        3.69438  -0.00256   0.00000  -0.01241  -0.01241   3.68197
   R11        1.82483  -0.00132   0.00000  -0.00242  -0.00242   1.82241
   R12        1.81880   0.00049   0.00000   0.00088   0.00088   1.81968
   R13        1.82119  -0.00005   0.00000  -0.00009  -0.00009   1.82110
   R14        1.81526   0.00007   0.00000   0.00013   0.00013   1.81539
    A1        1.87881   0.00032   0.00000  -0.00303  -0.00313   1.87568
    A2        2.06640  -0.00078   0.00000  -0.00621  -0.00633   2.06006
    A3        1.84268  -0.00001   0.00000   0.00427   0.00428   1.84696
    A4        1.96857  -0.00177   0.00000  -0.01176  -0.01185   1.95672
    A5        1.98615  -0.00001   0.00000   0.00271   0.00275   1.98890
    A6        1.71611   0.00252   0.00000   0.01715   0.01718   1.73329
    A7        2.02313   0.00014   0.00000   0.00084   0.00084   2.02397
    A8        1.99882   0.00003   0.00000   0.00019   0.00019   1.99900
    A9        2.07430  -0.02289   0.00000   0.00000   0.00000   2.07430
   A10        1.97349  -0.00051   0.00000  -0.01044  -0.01094   1.96256
   A11        1.98529  -0.00116   0.00000  -0.01427  -0.01472   1.97056
   A12        1.83279   0.00136   0.00000   0.01810   0.01817   1.85095
   A13        1.99358  -0.00158   0.00000  -0.01708  -0.01750   1.97608
   A14        1.82399   0.00130   0.00000   0.01699   0.01708   1.84108
   A15        1.83238   0.00135   0.00000   0.01648   0.01660   1.84898
   A16        2.03567  -0.00156   0.00000  -0.00962  -0.00962   2.02605
   A17        2.30994   0.00157   0.00000   0.00973   0.00973   2.31967
   A18        2.22354   0.00138   0.00000   0.00853   0.00853   2.23207
   A19        2.47858  -0.00118   0.00000  -0.00731  -0.00731   2.47128
    D1       -0.55056   0.00099   0.00000   0.00898   0.00897  -0.54158
    D2        1.70706  -0.00190   0.00000  -0.01597  -0.01594   1.69112
    D3       -2.67792   0.00083   0.00000   0.00506   0.00505  -2.67287
    D4        2.64795  -0.00076   0.00000  -0.00736  -0.00733   2.64062
    D5        0.33621   0.00147   0.00000   0.01327   0.01323   0.34944
    D6       -1.59959  -0.00057   0.00000  -0.00250  -0.00249  -1.60208
    D7        1.83293   0.00157   0.00000   0.02295   0.02289   1.85582
    D8       -2.23476  -0.00045   0.00000   0.00103   0.00110  -2.23365
    D9       -0.13593   0.00025   0.00000   0.00911   0.00909  -0.12684
   D10       -0.01284   0.00083   0.00000   0.02297   0.02293   0.01009
   D11       -2.06943   0.00045   0.00000   0.02244   0.02246  -2.04697
   D12        2.12810   0.00105   0.00000   0.02496   0.02497   2.15307
   D13        1.33033  -0.00220   0.00000  -0.07170  -0.07157   1.25877
   D14       -0.98096   0.00175   0.00000  -0.02238  -0.02253  -1.00349
   D15       -2.97476  -0.00012   0.00000  -0.04602  -0.04600  -3.02076
   D16       -1.54004   0.00188   0.00000   0.00503   0.00487  -1.53517
   D17        0.76721  -0.00189   0.00000  -0.04314  -0.04296   0.72425
   D18        2.75973  -0.00024   0.00000  -0.02133  -0.02136   2.73837
   D19       -2.04160  -0.00175   0.00000  -0.01358  -0.01337  -2.05496
   D20        1.94001   0.00174   0.00000   0.03310   0.03288   1.97289
   D21       -0.04756   0.00013   0.00000   0.01103   0.01104  -0.03652
   D22       -2.04482  -0.00022   0.00000  -0.00118  -0.00119  -2.04600
   D23        0.03634   0.00039   0.00000   0.00281   0.00282   0.03917
   D24        2.14002  -0.00017   0.00000  -0.00110  -0.00111   2.13890
         Item               Value     Threshold  Converged?
 Maximum Force            0.012156     0.000450     NO 
 RMS     Force            0.002085     0.000300     NO 
 Maximum Displacement     0.134986     0.001800     NO 
 RMS     Displacement     0.048065     0.001200     NO 
 Predicted change in Energy=-8.916423D-04
 GradGradGradGradGradGradGradGradGradGradGradGradGradGradGradGradGradGrad

                          Input orientation:                          
 ---------------------------------------------------------------------
 Center     Atomic      Atomic             Coordinates (Angstroms)
 Number     Number       Type             X           Y           Z
 ---------------------------------------------------------------------
      1         14           0       -1.876044   -0.035827   -0.117952
      2          8           0       -2.762440    1.331480   -0.332063
      3          8           0       -2.921737   -1.307770   -0.117471
      4          8           0       -0.608253   -0.286468   -1.103650
      5         40           0        1.249765   -0.041316   -0.375782
      6          1           0       -3.562677    1.236908   -0.859295
      7          1           0       -2.543042   -2.137344   -0.429567
      8          8           0       -1.051054    0.173964    1.340193
      9          1           0       -1.216133    1.002438    1.805386
     10          8           0        1.766807   -1.479106    0.863393
     11          1           0        1.656348   -1.597760    1.812584
     12          8           0        1.555145    1.764558    0.357270
     13          1           0        2.187838    2.426243    0.056331
     14          8           0        2.452033   -0.210545   -1.899669
     15          1           0        3.165946   -0.756946   -2.238268
 ---------------------------------------------------------------------
                    Distance matrix (angstroms):
                    1          2          3          4          5
     1  Si   0.000000
     2  O    1.643493   0.000000
     3  O    1.646607   2.652747   0.000000
     4  O    1.625336   2.802432   2.714372   0.000000
     5  Zr   3.136430   4.240787   4.367157   2.010503   0.000000
     6  H    2.239235   0.962963   2.726993   3.333018   5.002724
     7  H    2.226739   3.477123   0.963851   2.761076   4.333776
     8  O    1.688434   2.658031   2.796386   2.525953   2.878313
     9  H    2.283135   2.658576   3.455941   3.239335   3.453632
    10  O    4.039363   5.462837   4.793109   3.306441   1.967265
    11  H    4.317917   5.718886   4.976753   3.918205   2.716023
    12  O    3.903880   4.393663   5.450417   3.319832   1.972765
    13  H    4.754713   5.084743   6.330941   4.064785   2.674986
    14  O    4.683727   5.659149   5.766935   3.163030   1.948414
    15  H    5.517012   6.568174   6.470013   3.969040   2.766356
                    6          7          8          9         10
     6  H    0.000000
     7  H    3.551042   0.000000
     8  O    3.503691   3.271119   0.000000
     9  H    3.558339   4.076020   0.964379   0.000000
    10  O    6.224772   4.547507   3.301562   3.992911   0.000000
    11  H    6.512489   4.790957   3.269891   3.874562   0.962935
    12  O    5.286828   5.713063   3.207554   3.218361   3.289730
    13  H    5.943174   6.591179   4.148672   4.083312   4.010034
    14  O    6.273296   5.551984   4.787084   5.352962   3.116616
    15  H    7.152020   6.145684   5.608481   6.216847   3.478421
                   11         12         13         14         15
    11  H    0.000000
    12  O    3.665156   0.000000
    13  H    4.422613   0.963686   0.000000
    14  O    4.042067   3.130370   3.293689   0.000000
    15  H    4.404005   3.960995   4.044079   0.960663   0.000000
 Stoichiometry    H6O7SiZr
 Framework group  C1[X(H6O7SiZr)]
 Deg. of freedom    39
 Full point group                 C1      NOp   1
 Largest Abelian subgroup         C1      NOp   1
 Largest concise Abelian subgroup C1      NOp   1
                         Standard orientation:                         
 ---------------------------------------------------------------------
 Center     Atomic      Atomic             Coordinates (Angstroms)
 Number     Number       Type             X           Y           Z
 ---------------------------------------------------------------------
      1         14           0       -1.967891   -0.041886   -0.113589
      2          8           0       -2.841307    1.303447   -0.471773
      3          8           0       -2.995558   -1.327299   -0.167712
      4          8           0       -0.603781   -0.313347   -0.954557
      5         40           0        1.167816   -0.013874   -0.052405
      6          1           0       -3.582637    1.177069   -1.073234
      7          1           0       -2.578829   -2.163130   -0.405897
      8          8           0       -1.298003    0.236535    1.411055
      9          1           0       -1.517839    1.080265    1.823145
     10          8           0        1.569991   -1.394504    1.290073
     11          1           0        1.364498   -1.477297    2.227176
     12          8           0        1.378988    1.823497    0.634092
     13          1           0        2.032498    2.481611    0.372364
     14          8           0        2.520822   -0.226058   -1.438287
     15          1           0        3.270907   -0.775324   -1.680266
 ---------------------------------------------------------------------
 Rotational constants (GHZ):           1.7480134           0.5770516           0.5582574
 Basis read from rwf:  (5D, 7F)
 Pseudo-potential data read from rwf file.
 There are   178 symmetry adapted cartesian basis functions of A   symmetry.
 There are   168 symmetry adapted basis functions of A   symmetry.
   168 basis functions,   339 primitive gaussians,   178 cartesian basis functions
    44 alpha electrons       44 beta electrons
       nuclear repulsion energy       655.8683223849 Hartrees.
 NAtoms=   15 NActive=   15 NUniq=   15 SFac= 1.00D+00 NAtFMM=   60 NAOKFM=F Big=F
 Integral buffers will be    131072 words long.
 Raffenetti 2 integral format.
 Two-electron integral symmetry is turned on.
 One-electron integrals computed using PRISM.
   1 Symmetry operations used in ECPInt.
 ECPInt:  NShTT=    1770 NPrTT=   10201 LenC2=    1658 LenP2D=    6674.
 LDataN:  DoStor=T MaxTD1= 5 Len=  102
 NBasis=   168 RedAO= T EigKep=  9.95D-03  NBF=   168
 NBsUse=   168 1.00D-06 EigRej= -1.00D+00 NBFU=   168
 Defaulting to unpruned grid for atomic number  40.
 Initial guess from the checkpoint file:  "/localscratch/sarashs.33453160.0/Gau-24293.chk"
 B after Tr=     0.000000   -0.000000    0.000000
         Rot=    0.999919    0.011975    0.004411    0.000299 Ang=   1.46 deg.
 ExpMin= 2.43D-02 ExpMax= 1.61D+04 ExpMxC= 2.43D+03 IAcc=3 IRadAn=         5 AccDes= 0.00D+00
 Harris functional with IExCor=  402 and IRadAn=       5 diagonalized for initial guess.
 HarFok:  IExCor=  402 AccDes= 0.00D+00 IRadAn=         5 IDoV= 1 UseB2=F ITyADJ=14
 ICtDFT=  3500011 ScaDFX=  1.000000  1.000000  1.000000  1.000000
 Defaulting to unpruned grid for atomic number  40.
 FoFCou: FMM=F IPFlag=           0 FMFlag=      100000 FMFlg1=           0
         NFxFlg=           0 DoJE=T BraDBF=F KetDBF=T FulRan=T
         wScrn=  0.000000 ICntrl=       500 IOpCl=  0 I1Cent=   200000004 NGrid=           0
         NMat0=    1 NMatS0=      1 NMatT0=    0 NMatD0=    1 NMtDS0=    0 NMtDT0=    0
 Petite list used in FoFCou.
 Requested convergence on RMS density matrix=1.00D-08 within 128 cycles.
 Requested convergence on MAX density matrix=1.00D-06.
 Requested convergence on             energy=1.00D-06.
 No special actions if energy rises.
 Defaulting to unpruned grid for atomic number  40.
 Defaulting to unpruned grid for atomic number  40.
 Defaulting to unpruned grid for atomic number  40.
 Defaulting to unpruned grid for atomic number  40.
 Defaulting to unpruned grid for atomic number  40.
 Defaulting to unpruned grid for atomic number  40.
 Defaulting to unpruned grid for atomic number  40.
 Defaulting to unpruned grid for atomic number  40.
 Defaulting to unpruned grid for atomic number  40.
 Defaulting to unpruned grid for atomic number  40.
 Defaulting to unpruned grid for atomic number  40.
 Defaulting to unpruned grid for atomic number  40.
 Defaulting to unpruned grid for atomic number  40.
 Defaulting to unpruned grid for atomic number  40.
 Defaulting to unpruned grid for atomic number  40.
 Defaulting to unpruned grid for atomic number  40.
 SCF Done:  E(RB3LYP) =  -866.687410521     A.U. after   11 cycles
            NFock= 11  Conv=0.51D-08     -V/T= 2.0444
   1 Symmetry operations used in ECPInt.
 ECPInt:  NShTT=    1770 NPrTT=   10201 LenC2=    1658 LenP2D=    6674.
 LDataN:  DoStor=T MaxTD1= 6 Len=  172
 Calling FoFJK, ICntrl=      2127 FMM=F ISym2X=0 I1Cent= 0 IOpClX= 0 NMat=1 NMatS=1 NMatT=0.
 Defaulting to unpruned grid for atomic number  40.
 Defaulting to unpruned grid for atomic number  40.
 Defaulting to unpruned grid for atomic number  40.
 Defaulting to unpruned grid for atomic number  40.
 Defaulting to unpruned grid for atomic number  40.
 Defaulting to unpruned grid for atomic number  40.
 Defaulting to unpruned grid for atomic number  40.
 Defaulting to unpruned grid for atomic number  40.
 Defaulting to unpruned grid for atomic number  40.
 Defaulting to unpruned grid for atomic number  40.
 Defaulting to unpruned grid for atomic number  40.
 Defaulting to unpruned grid for atomic number  40.
 Defaulting to unpruned grid for atomic number  40.
 Defaulting to unpruned grid for atomic number  40.
 Defaulting to unpruned grid for atomic number  40.
 Defaulting to unpruned grid for atomic number  40.
 ***** Axes restored to original set *****
 -------------------------------------------------------------------
 Center     Atomic                   Forces (Hartrees/Bohr)
 Number     Number              X              Y              Z
 -------------------------------------------------------------------
      1       14           0.003322269    0.002245118    0.010424600
      2        8           0.000173203    0.000238571   -0.000722585
      3        8          -0.000069820   -0.000386781   -0.000577238
      4        8          -0.004707984   -0.002322288   -0.010081171
      5       40           0.002475223   -0.000948664    0.004645310
      6        1           0.000107336   -0.000119167   -0.000023900
      7        1          -0.000031646   -0.000028621    0.000115247
      8        8          -0.001108826    0.000009556   -0.003363238
      9        1          -0.000926630   -0.000242135    0.000106146
     10        8          -0.000595427    0.000253419    0.001270844
     11        1           0.000125849   -0.000281225   -0.000433352
     12        8           0.000004054    0.001128814    0.000364671
     13        1          -0.000400639    0.000581348    0.000664705
     14        8           0.001571872    0.000029455   -0.002678483
     15        1           0.000061166   -0.000157401    0.000288445
 -------------------------------------------------------------------
 Cartesian Forces:  Max     0.010424600 RMS     0.002631321

 GradGradGradGradGradGradGradGradGradGradGradGradGradGradGradGradGradGrad
 Berny optimization.
 Using GEDIIS/GDIIS optimizer.
 FormGI is forming the generalized inverse of G from B-inverse, IUseBI=4.
 Internal  Forces:  Max     0.013571585 RMS     0.002136028
 Search for a local minimum.
 Step number   2 out of a maximum of   67
 All quantities printed in internal units (Hartrees-Bohrs-Radians)
 Mixed Optimization -- RFO/linear search
 Update second derivatives using D2CorX and points    1    2
 DE= -8.36D-04 DEPred=-8.92D-04 R= 9.38D-01
 TightC=F SS=  1.41D+00  RLast= 1.52D-01 DXNew= 5.0454D-01 4.5514D-01
 Trust test= 9.38D-01 RLast= 1.52D-01 DXMaxT set to 4.55D-01
 ITU=  1  0
 Use linear search instead of GDIIS.
     Eigenvalues ---    0.00229   0.00230   0.00230   0.00246   0.02957
     Eigenvalues ---    0.03730   0.03781   0.03866   0.06227   0.10252
     Eigenvalues ---    0.11169   0.11313   0.12311   0.13478   0.15460
     Eigenvalues ---    0.15999   0.16000   0.16000   0.16000   0.16000
     Eigenvalues ---    0.18137   0.19470   0.19708   0.19857   0.19949
     Eigenvalues ---    0.20055   0.21172   0.25517   0.37713   0.43262
     Eigenvalues ---    0.43857   0.47963   0.54287   0.54624   0.54678
     Eigenvalues ---    0.54845   0.55000   0.553461000.000001000.00000
     Eigenvalues --- 1000.000001000.000001000.000001000.000001000.00000
     Eigenvalues --- 1000.000001000.000001000.000001000.000001000.00000
     Eigenvalues --- 1000.000001000.000001000.000001000.000001000.00000
     Eigenvalues --- 1000.000001000.00000
 RFO step:  Lambda=-5.08846278D-04 EMin= 2.29438405D-03
 Quartic linear search produced a step of -0.06180.
 Iteration  1 RMS(Cart)=  0.10140285 RMS(Int)=  0.00205066
 Iteration  2 RMS(Cart)=  0.00352652 RMS(Int)=  0.00006272
 Iteration  3 RMS(Cart)=  0.00000456 RMS(Int)=  0.00006268
 Iteration  4 RMS(Cart)=  0.00000000 RMS(Int)=  0.00006268
 Iteration  1 RMS(Cart)=  0.00000000 RMS(Int)=  0.00000000
 Variable       Old X    -DE/DX   Delta X   Delta X   Delta X     New X
                                 (Linear)    (Quad)   (Total)
    R1        3.10575   0.00004  -0.00016   0.00105   0.00089   3.10665
    R2        3.11164   0.00039  -0.00008   0.00134   0.00125   3.11289
    R3        3.07144   0.00273   0.00037   0.00334   0.00371   3.07515
    R4        3.19068  -0.00384   0.00028  -0.01140  -0.01112   3.17955
    R5        1.81974  -0.00006  -0.00000  -0.00010  -0.00010   1.81964
    R6        1.82141  -0.00002   0.00002  -0.00014  -0.00013   1.82129
    R7        3.79930   0.00456   0.00469  -0.00149   0.00320   3.80250
    R8        3.71759   0.00042   0.00016   0.00103   0.00120   3.71879
    R9        3.72799   0.00189   0.00114   0.00240   0.00354   3.73153
   R10        3.68197   0.00289   0.00077   0.00858   0.00934   3.69131
   R11        1.82241   0.00000   0.00015  -0.00090  -0.00075   1.82166
   R12        1.81968  -0.00041  -0.00005  -0.00036  -0.00042   1.81926
   R13        1.82110  -0.00007   0.00001  -0.00016  -0.00015   1.82095
   R14        1.81539   0.00003  -0.00001   0.00011   0.00010   1.81549
    A1        1.87568   0.00047   0.00019  -0.00085  -0.00071   1.87496
    A2        2.06006  -0.00089   0.00039  -0.00828  -0.00794   2.05212
    A3        1.84696  -0.00015  -0.00026   0.00261   0.00237   1.84933
    A4        1.95672  -0.00075   0.00073  -0.00907  -0.00840   1.94832
    A5        1.98890   0.00012  -0.00017   0.00351   0.00335   1.99225
    A6        1.73329   0.00127  -0.00106   0.01409   0.01305   1.74634
    A7        2.02397  -0.00026  -0.00005  -0.00118  -0.00124   2.02273
    A8        1.99900   0.00011  -0.00001   0.00069   0.00068   1.99968
    A9        2.07430  -0.01357  -0.00000   0.00000   0.00000   2.07430
   A10        1.96256  -0.00013   0.00068  -0.00835  -0.00791   1.95465
   A11        1.97056  -0.00127   0.00091  -0.01606  -0.01534   1.95523
   A12        1.85095   0.00063  -0.00112   0.01352   0.01245   1.86341
   A13        1.97608  -0.00027   0.00108  -0.01115  -0.01030   1.96579
   A14        1.84108   0.00042  -0.00106   0.01356   0.01253   1.85360
   A15        1.84898   0.00090  -0.00103   0.01456   0.01360   1.86258
   A16        2.02605  -0.00080   0.00059  -0.00826  -0.00767   2.01838
   A17        2.31967   0.00060  -0.00060   0.00716   0.00656   2.32623
   A18        2.23207   0.00176  -0.00053   0.01345   0.01293   2.24500
   A19        2.47128  -0.00059   0.00045  -0.00616  -0.00571   2.46557
    D1       -0.54158   0.00052  -0.00055   0.00750   0.00694  -0.53464
    D2        1.69112  -0.00082   0.00099  -0.01268  -0.01167   1.67944
    D3       -2.67287   0.00021  -0.00031   0.00240   0.00207  -2.67080
    D4        2.64062  -0.00047   0.00045  -0.00592  -0.00546   2.63516
    D5        0.34944   0.00092  -0.00082   0.01281   0.01198   0.36142
    D6       -1.60208  -0.00027   0.00015  -0.00122  -0.00105  -1.60314
    D7        1.85582   0.00088  -0.00141   0.02496   0.02349   1.87931
    D8       -2.23365   0.00007  -0.00007   0.00783   0.00781  -2.22584
    D9       -0.12684   0.00060  -0.00056   0.01602   0.01546  -0.11138
   D10        0.01009   0.00081  -0.00142   0.02421   0.02278   0.03287
   D11       -2.04697   0.00026  -0.00139   0.02160   0.02023  -2.02674
   D12        2.15307   0.00033  -0.00154   0.02228   0.02073   2.17380
   D13        1.25877  -0.00044   0.00442   0.08229   0.08680   1.34557
   D14       -1.00349   0.00118   0.00139   0.11957   0.12086  -0.88264
   D15       -3.02076   0.00037   0.00284   0.10221   0.10507  -2.91569
   D16       -1.53517   0.00106  -0.00030   0.02355   0.02320  -1.51197
   D17        0.72425  -0.00108   0.00265  -0.01637  -0.01366   0.71059
   D18        2.73837   0.00013   0.00132   0.00366   0.00497   2.74335
   D19       -2.05496  -0.00070   0.00083  -0.00113  -0.00017  -2.05514
   D20        1.97289   0.00086  -0.00203   0.03505   0.03291   2.00580
   D21       -0.03652  -0.00006  -0.00068   0.01562   0.01493  -0.02159
   D22       -2.04600  -0.00039   0.00007  -0.01285  -0.01278  -2.05878
   D23        0.03917  -0.00002  -0.00017  -0.00931  -0.00950   0.02967
   D24        2.13890   0.00032   0.00007  -0.00834  -0.00826   2.13064
         Item               Value     Threshold  Converged?
 Maximum Force            0.004563     0.000450     NO 
 RMS     Force            0.001164     0.000300     NO 
 Maximum Displacement     0.269270     0.001800     NO 
 RMS     Displacement     0.101987     0.001200     NO 
 Predicted change in Energy=-2.685986D-04
 GradGradGradGradGradGradGradGradGradGradGradGradGradGradGradGradGradGrad

                          Input orientation:                          
 ---------------------------------------------------------------------
 Center     Atomic      Atomic             Coordinates (Angstroms)
 Number     Number       Type             X           Y           Z
 ---------------------------------------------------------------------
      1         14           0       -1.867569   -0.018433   -0.108955
      2          8           0       -2.747455    1.333946   -0.424386
      3          8           0       -2.918968   -1.284159   -0.031516
      4          8           0       -0.608632   -0.343381   -1.087521
      5         40           0        1.259150   -0.087141   -0.384202
      6          1           0       -3.546059    1.203784   -0.946387
      7          1           0       -2.542779   -2.133895   -0.287076
      8          8           0       -1.050322    0.286517    1.329822
      9          1           0       -1.232469    1.139465    1.740388
     10          8           0        1.805439   -1.554357    0.808051
     11          1           0        1.697193   -1.713420    1.751343
     12          8           0        1.503215    1.691325    0.438415
     13          1           0        2.099121    2.400400    0.172616
     14          8           0        2.456863   -0.162505   -1.925438
     15          1           0        3.185773   -0.675635   -2.283715
 ---------------------------------------------------------------------
                    Distance matrix (angstroms):
                    1          2          3          4          5
     1  Si   0.000000
     2  O    1.643966   0.000000
     3  O    1.647270   2.652967   0.000000
     4  O    1.627300   2.797809   2.708848   0.000000
     5  Zr   3.139563   4.251351   4.360494   2.012195   0.000000
     6  H    2.238846   0.962910   2.723984   3.322967   5.007251
     7  H    2.227738   3.476589   0.963784   2.754555   4.318947
     8  O    1.682548   2.656052   2.795014   2.536811   2.900200
     9  H    2.272477   2.649387   3.443526   3.253471   3.496657
    10  O    4.085456   5.530826   4.806027   3.299605   1.967898
    11  H    4.363624   5.811637   4.967071   3.905507   2.719783
    12  O    3.819041   4.352050   5.350705   3.305815   1.974641
    13  H    4.654531   4.998302   6.228872   4.055639   2.683925
    14  O    4.692662   5.619382   5.809011   3.183093   1.953358
    15  H    5.540556   6.534425   6.535332   3.992341   2.768818
                    6          7          8          9         10
     6  H    0.000000
     7  H    3.547021   0.000000
     8  O    3.500172   3.271113   0.000000
     9  H    3.546208   4.067236   0.963982   0.000000
    10  O    6.270878   4.521302   3.437504   4.165910   0.000000
    11  H    6.578716   4.723273   3.424364   4.089253   0.962713
    12  O    5.258378   5.615044   3.047728   3.079554   3.280613
    13  H    5.878104   6.505258   3.965680   3.891961   4.016233
    14  O    6.233807   5.618455   4.806110   5.361397   3.135852
    15  H    7.116054   6.239343   5.650477   6.245707   3.498070
                   11         12         13         14         15
    11  H    0.000000
    12  O    3.654271   0.000000
    13  H    4.424640   0.963607   0.000000
    14  O    4.062161   3.151815   3.331410   0.000000
    15  H    4.424315   3.980389   4.083671   0.960716   0.000000
 Stoichiometry    H6O7SiZr
 Framework group  C1[X(H6O7SiZr)]
 Deg. of freedom    39
 Full point group                 C1      NOp   1
 Largest Abelian subgroup         C1      NOp   1
 Largest concise Abelian subgroup C1      NOp   1
                         Standard orientation:                         
 ---------------------------------------------------------------------
 Center     Atomic      Atomic             Coordinates (Angstroms)
 Number     Number       Type             X           Y           Z
 ---------------------------------------------------------------------
      1         14           0       -1.964632   -0.048558   -0.109895
      2          8           0       -2.848032    1.270745   -0.536121
      3          8           0       -2.978489   -1.346784   -0.124103
      4          8           0       -0.600192   -0.343838   -0.946086
      5         40           0        1.174305   -0.018855   -0.054753
      6          1           0       -3.582816    1.108619   -1.136957
      7          1           0       -2.551260   -2.186776   -0.326016
      8          8           0       -1.313257    0.299562    1.401888
      9          1           0       -1.564034    1.150877    1.778232
     10          8           0        1.637393   -1.453526    1.210115
     11          1           0        1.435448   -1.604997    2.139142
     12          8           0        1.275023    1.776086    0.762101
     13          1           0        1.873269    2.500994    0.549618
     14          8           0        2.529365   -0.073259   -1.460619
     15          1           0        3.307535   -0.566585   -1.732751
 ---------------------------------------------------------------------
 Rotational constants (GHZ):           1.7440340           0.5765013           0.5582477
 Basis read from rwf:  (5D, 7F)
 Pseudo-potential data read from rwf file.
 There are   178 symmetry adapted cartesian basis functions of A   symmetry.
 There are   168 symmetry adapted basis functions of A   symmetry.
   168 basis functions,   339 primitive gaussians,   178 cartesian basis functions
    44 alpha electrons       44 beta electrons
       nuclear repulsion energy       655.8802854898 Hartrees.
 NAtoms=   15 NActive=   15 NUniq=   15 SFac= 1.00D+00 NAtFMM=   60 NAOKFM=F Big=F
 Integral buffers will be    131072 words long.
 Raffenetti 2 integral format.
 Two-electron integral symmetry is turned on.
 One-electron integrals computed using PRISM.
   1 Symmetry operations used in ECPInt.
 ECPInt:  NShTT=    1770 NPrTT=   10201 LenC2=    1655 LenP2D=    6679.
 LDataN:  DoStor=T MaxTD1= 5 Len=  102
 NBasis=   168 RedAO= T EigKep=  9.97D-03  NBF=   168
 NBsUse=   168 1.00D-06 EigRej= -1.00D+00 NBFU=   168
 Defaulting to unpruned grid for atomic number  40.
 Initial guess from the checkpoint file:  "/localscratch/sarashs.33453160.0/Gau-24293.chk"
 B after Tr=    -0.000000    0.000000   -0.000000
         Rot=    0.999903   -0.012125    0.000635   -0.006800 Ang=  -1.59 deg.
 ExpMin= 2.43D-02 ExpMax= 1.61D+04 ExpMxC= 2.43D+03 IAcc=3 IRadAn=         5 AccDes= 0.00D+00
 Harris functional with IExCor=  402 and IRadAn=       5 diagonalized for initial guess.
 HarFok:  IExCor=  402 AccDes= 0.00D+00 IRadAn=         5 IDoV= 1 UseB2=F ITyADJ=14
 ICtDFT=  3500011 ScaDFX=  1.000000  1.000000  1.000000  1.000000
 Defaulting to unpruned grid for atomic number  40.
 FoFCou: FMM=F IPFlag=           0 FMFlag=      100000 FMFlg1=           0
         NFxFlg=           0 DoJE=T BraDBF=F KetDBF=T FulRan=T
         wScrn=  0.000000 ICntrl=       500 IOpCl=  0 I1Cent=   200000004 NGrid=           0
         NMat0=    1 NMatS0=      1 NMatT0=    0 NMatD0=    1 NMtDS0=    0 NMtDT0=    0
 Petite list used in FoFCou.
 Requested convergence on RMS density matrix=1.00D-08 within 128 cycles.
 Requested convergence on MAX density matrix=1.00D-06.
 Requested convergence on             energy=1.00D-06.
 No special actions if energy rises.
 Defaulting to unpruned grid for atomic number  40.
 Defaulting to unpruned grid for atomic number  40.
 Defaulting to unpruned grid for atomic number  40.
 Defaulting to unpruned grid for atomic number  40.
 Defaulting to unpruned grid for atomic number  40.
 Defaulting to unpruned grid for atomic number  40.
 Defaulting to unpruned grid for atomic number  40.
 Defaulting to unpruned grid for atomic number  40.
 Defaulting to unpruned grid for atomic number  40.
 Defaulting to unpruned grid for atomic number  40.
 Defaulting to unpruned grid for atomic number  40.
 Defaulting to unpruned grid for atomic number  40.
 Defaulting to unpruned grid for atomic number  40.
 Defaulting to unpruned grid for atomic number  40.
 Defaulting to unpruned grid for atomic number  40.
 Defaulting to unpruned grid for atomic number  40.
 SCF Done:  E(RB3LYP) =  -866.687220176     A.U. after   11 cycles
            NFock= 11  Conv=0.46D-08     -V/T= 2.0445
   1 Symmetry operations used in ECPInt.
 ECPInt:  NShTT=    1770 NPrTT=   10201 LenC2=    1655 LenP2D=    6679.
 LDataN:  DoStor=T MaxTD1= 6 Len=  172
 Calling FoFJK, ICntrl=      2127 FMM=F ISym2X=0 I1Cent= 0 IOpClX= 0 NMat=1 NMatS=1 NMatT=0.
 Defaulting to unpruned grid for atomic number  40.
 Defaulting to unpruned grid for atomic number  40.
 Defaulting to unpruned grid for atomic number  40.
 Defaulting to unpruned grid for atomic number  40.
 Defaulting to unpruned grid for atomic number  40.
 Defaulting to unpruned grid for atomic number  40.
 Defaulting to unpruned grid for atomic number  40.
 Defaulting to unpruned grid for atomic number  40.
 Defaulting to unpruned grid for atomic number  40.
 Defaulting to unpruned grid for atomic number  40.
 Defaulting to unpruned grid for atomic number  40.
 Defaulting to unpruned grid for atomic number  40.
 Defaulting to unpruned grid for atomic number  40.
 Defaulting to unpruned grid for atomic number  40.
 Defaulting to unpruned grid for atomic number  40.
 Defaulting to unpruned grid for atomic number  40.
 ***** Axes restored to original set *****
 -------------------------------------------------------------------
 Center     Atomic                   Forces (Hartrees/Bohr)
 Number     Number              X              Y              Z
 -------------------------------------------------------------------
      1       14           0.002120498    0.002612413    0.008083058
      2        8           0.000035957    0.000357508   -0.000444737
      3        8          -0.000300514   -0.000505358   -0.000181957
      4        8          -0.002412167   -0.002888495   -0.007913165
      5       40           0.002354089    0.001907121    0.003822326
      6        1           0.000111783   -0.000156445   -0.000064862
      7        1          -0.000018655    0.000071417    0.000006168
      8        8          -0.002753439   -0.002809476   -0.003092587
      9        1           0.000757121    0.000090982    0.000337986
     10        8          -0.001799782    0.000438586    0.000908817
     11        1           0.000536712   -0.000148451   -0.000083741
     12        8           0.001029315    0.000773174   -0.001145437
     13        1           0.000145658    0.000210402    0.000364899
     14        8           0.000095341    0.000195166   -0.000822385
     15        1           0.000098083   -0.000148543    0.000225616
 -------------------------------------------------------------------
 Cartesian Forces:  Max     0.008083058 RMS     0.002171848

 GradGradGradGradGradGradGradGradGradGradGradGradGradGradGradGradGradGrad
 Berny optimization.
 Using GEDIIS/GDIIS optimizer.
 FormGI is forming the generalized inverse of G from B-inverse, IUseBI=4.
 Internal  Forces:  Max     0.009612637 RMS     0.001854518
 Search for a local minimum.
 Step number   3 out of a maximum of   67
 All quantities printed in internal units (Hartrees-Bohrs-Radians)
 Mixed Optimization -- RFO/linear search
 Update second derivatives using D2CorX and points    1    3    2
 DE=  1.90D-04 DEPred=-2.69D-04 R=-7.09D-01
 Trust test=-7.09D-01 RLast= 2.00D-01 DXMaxT set to 2.28D-01
 ITU= -1  1  0
 Use linear search instead of GDIIS.
     Eigenvalues ---    0.00227   0.00230   0.00231   0.00971   0.02588
     Eigenvalues ---    0.03726   0.03779   0.04534   0.05974   0.10251
     Eigenvalues ---    0.10972   0.11078   0.12339   0.13705   0.15161
     Eigenvalues ---    0.15999   0.16000   0.16000   0.16000   0.16212
     Eigenvalues ---    0.17775   0.19401   0.19702   0.19740   0.19979
     Eigenvalues ---    0.20317   0.21405   0.22298   0.34993   0.43251
     Eigenvalues ---    0.43861   0.45975   0.54278   0.54624   0.54681
     Eigenvalues ---    0.54844   0.54951   0.553461000.000001000.00000
     Eigenvalues --- 1000.000001000.000001000.000001000.000001000.00000
     Eigenvalues --- 1000.000001000.000001000.000001000.000001000.00000
     Eigenvalues --- 1000.000001000.000001000.000001000.000001000.00000
     Eigenvalues --- 1000.000001000.00000
 RFO step:  Lambda=-9.66747129D-04 EMin= 2.27426939D-03
 Quartic linear search produced a step of -0.62868.
 Iteration  1 RMS(Cart)=  0.13441910 RMS(Int)=  0.00383196
 Iteration  2 RMS(Cart)=  0.00648884 RMS(Int)=  0.00012903
 Iteration  3 RMS(Cart)=  0.00001468 RMS(Int)=  0.00012887
 Iteration  4 RMS(Cart)=  0.00000000 RMS(Int)=  0.00012887
 Iteration  1 RMS(Cart)=  0.00000000 RMS(Int)=  0.00000000
 Variable       Old X    -DE/DX   Delta X   Delta X   Delta X     New X
                                 (Linear)    (Quad)   (Total)
    R1        3.10665   0.00018  -0.00056   0.00181   0.00125   3.10790
    R2        3.11289   0.00053  -0.00079   0.00337   0.00258   3.11547
    R3        3.07515   0.00276  -0.00233   0.01348   0.01114   3.08629
    R4        3.17955  -0.00382   0.00699  -0.03164  -0.02465   3.15491
    R5        1.81964  -0.00004   0.00006  -0.00029  -0.00023   1.81941
    R6        1.82129  -0.00007   0.00008  -0.00031  -0.00023   1.82106
    R7        3.80250   0.00384  -0.00201   0.03728   0.03527   3.83776
    R8        3.71879  -0.00007  -0.00075   0.00366   0.00291   3.72170
    R9        3.73153   0.00071  -0.00223   0.01544   0.01321   3.74474
   R10        3.69131   0.00059  -0.00587   0.02859   0.02271   3.71402
   R11        1.82166   0.00008   0.00047  -0.00126  -0.00079   1.82087
   R12        1.81926  -0.00012   0.00026  -0.00140  -0.00114   1.81813
   R13        1.82095   0.00014   0.00009  -0.00027  -0.00017   1.82078
   R14        1.81549   0.00007  -0.00006   0.00027   0.00021   1.81570
    A1        1.87496   0.00006   0.00045  -0.00083  -0.00054   1.87442
    A2        2.05212  -0.00056   0.00499  -0.01974  -0.01489   2.03723
    A3        1.84933   0.00193  -0.00149   0.00974   0.00829   1.85762
    A4        1.94832   0.00003   0.00528  -0.01975  -0.01459   1.93373
    A5        1.99225  -0.00145  -0.00210   0.00483   0.00275   1.99500
    A6        1.74634  -0.00004  -0.00821   0.02927   0.02113   1.76747
    A7        2.02273  -0.00032   0.00078  -0.00419  -0.00341   2.01932
    A8        1.99968  -0.00003  -0.00043   0.00164   0.00122   2.00090
    A9        2.07430  -0.00961   0.00000   0.00000  -0.00000   2.07430
   A10        1.95465  -0.00157   0.00497  -0.02051  -0.01599   1.93866
   A11        1.95523   0.00168   0.00964  -0.03246  -0.02319   1.93203
   A12        1.86341  -0.00024  -0.00783   0.02632   0.01861   1.88202
   A13        1.96579   0.00007   0.00647  -0.02156  -0.01556   1.95023
   A14        1.85360   0.00134  -0.00787   0.02986   0.02204   1.87564
   A15        1.86258  -0.00131  -0.00855   0.02802   0.01957   1.88215
   A16        2.01838   0.00129   0.00482  -0.01432  -0.00950   2.00888
   A17        2.32623   0.00073  -0.00412   0.01617   0.01205   2.33828
   A18        2.24500   0.00063  -0.00813   0.03279   0.02466   2.26966
   A19        2.46557  -0.00048   0.00359  -0.01404  -0.01045   2.45512
    D1       -0.53464  -0.00013  -0.00436   0.01541   0.01103  -0.52362
    D2        1.67944  -0.00048   0.00734  -0.02794  -0.02054   1.65890
    D3       -2.67080   0.00047  -0.00130   0.00478   0.00344  -2.66736
    D4        2.63516  -0.00076   0.00343  -0.01425  -0.01080   2.62436
    D5        0.36142  -0.00009  -0.00753   0.02702   0.01947   0.38089
    D6       -1.60314   0.00083   0.00066   0.00010   0.00078  -1.60236
    D7        1.87931  -0.00167  -0.01477   0.03328   0.01838   1.89769
    D8       -2.22584  -0.00204  -0.00491  -0.00259  -0.00737  -2.23321
    D9       -0.11138  -0.00373  -0.00972   0.01091   0.00120  -0.11018
   D10        0.03287  -0.00010  -0.01432   0.04966   0.03527   0.06814
   D11       -2.02674  -0.00063  -0.01272   0.04154   0.02884  -1.99790
   D12        2.17380   0.00002  -0.01303   0.04482   0.03183   2.20563
   D13        1.34557  -0.00286  -0.05457  -0.12896  -0.18332   1.16225
   D14       -0.88264  -0.00305  -0.07598  -0.05614  -0.13235  -1.01499
   D15       -2.91569  -0.00223  -0.06606  -0.08830  -0.15434  -3.07003
   D16       -1.51197  -0.00062  -0.01458   0.03403   0.01929  -1.49268
   D17        0.71059   0.00042   0.00859  -0.04507  -0.03633   0.67426
   D18        2.74335  -0.00031  -0.00313  -0.00450  -0.00762   2.73572
   D19       -2.05514  -0.00029   0.00011  -0.01766  -0.01733  -2.07247
   D20        2.00580   0.00040  -0.02069   0.05514   0.03427   2.04006
   D21       -0.02159  -0.00046  -0.00938   0.01349   0.00408  -0.01751
   D22       -2.05878   0.00077   0.00803  -0.02952  -0.02152  -2.08030
   D23        0.02967  -0.00049   0.00597  -0.02472  -0.01876   0.01091
   D24        2.13064  -0.00038   0.00519  -0.01995  -0.01471   2.11593
         Item               Value     Threshold  Converged?
 Maximum Force            0.003839     0.000450     NO 
 RMS     Force            0.001360     0.000300     NO 
 Maximum Displacement     0.344227     0.001800     NO 
 RMS     Displacement     0.135277     0.001200     NO 
 Predicted change in Energy=-6.199667D-04
 GradGradGradGradGradGradGradGradGradGradGradGradGradGradGradGradGradGrad

                          Input orientation:                          
 ---------------------------------------------------------------------
 Center     Atomic      Atomic             Coordinates (Angstroms)
 Number     Number       Type             X           Y           Z
 ---------------------------------------------------------------------
      1         14           0       -1.862764   -0.027191   -0.085456
      2          8           0       -2.760071    1.335173   -0.294280
      3          8           0       -2.897503   -1.310019   -0.126336
      4          8           0       -0.618509   -0.252731   -1.119037
      5         40           0        1.279674   -0.044373   -0.427760
      6          1           0       -3.556198    1.233307   -0.826039
      7          1           0       -2.510529   -2.127985   -0.457744
      8          8           0       -1.054002    0.157392    1.363362
      9          1           0       -1.272198    0.957307    1.854262
     10          8           0        1.717046   -1.453536    0.876715
     11          1           0        1.585457   -1.550292    1.824860
     12          8           0        1.554924    1.766620    0.328153
     13          1           0        2.164851    2.463354    0.061856
     14          8           0        2.501810   -0.252371   -1.952826
     15          1           0        3.220510   -0.812146   -2.258290
 ---------------------------------------------------------------------
                    Distance matrix (angstroms):
                    1          2          3          4          5
     1  Si   0.000000
     2  O    1.644628   0.000000
     3  O    1.648637   2.654079   0.000000
     4  O    1.633196   2.790690   2.701320   0.000000
     5  Zr   3.161074   4.270891   4.375103   2.030856   0.000000
     6  H    2.237193   0.962789   2.718818   3.305173   5.017644
     7  H    2.229694   3.475983   0.963664   2.744745   4.325272
     8  O    1.669504   2.654359   2.787650   2.553461   2.948707
     9  H    2.253999   2.640602   3.421279   3.275974   3.566937
    10  O    3.971810   5.403027   4.724486   3.298451   1.969438
    11  H    4.226035   5.630300   4.895082   3.899700   2.726828
    12  O    3.881936   4.380953   5.431056   3.300901   1.981631
    13  H    4.737742   5.065025   6.316738   4.064322   2.704063
    14  O    4.752609   5.740946   5.797178   3.229798   1.965377
    15  H    5.583640   6.650989   6.497937   4.043378   2.776177
                    6          7          8          9         10
     6  H    0.000000
     7  H    3.539400   0.000000
     8  O    3.494575   3.265096   0.000000
     9  H    3.532257   4.049428   0.963564   0.000000
    10  O    6.158376   4.484201   3.242009   3.962744   0.000000
    11  H    6.419681   4.724523   3.177406   3.801987   0.962111
    12  O    5.266892   5.684496   3.235393   3.313097   3.270566
    13  H    5.918764   6.573398   4.168020   4.158629   4.025735
    14  O    6.338482   5.556685   4.879428   5.495487   3.172531
    15  H    7.222118   6.149651   5.685756   6.342592   3.535539
                   11         12         13         14         15
    11  H    0.000000
    12  O    3.639089   0.000000
    13  H    4.421903   0.963516   0.000000
    14  O    4.098197   3.189951   3.398183   0.000000
    15  H    4.459863   4.014212   4.150469   0.960825   0.000000
 Stoichiometry    H6O7SiZr
 Framework group  C1[X(H6O7SiZr)]
 Deg. of freedom    39
 Full point group                 C1      NOp   1
 Largest Abelian subgroup         C1      NOp   1
 Largest concise Abelian subgroup C1      NOp   1
                         Standard orientation:                         
 ---------------------------------------------------------------------
 Center     Atomic      Atomic             Coordinates (Angstroms)
 Number     Number       Type             X           Y           Z
 ---------------------------------------------------------------------
      1         14           0       -1.969867   -0.043982   -0.107978
      2          8           0       -2.851192    1.272914   -0.548264
      3          8           0       -2.975371   -1.349501   -0.158832
      4          8           0       -0.604003   -0.330724   -0.956225
      5         40           0        1.190713   -0.017097   -0.059002
[...]
 ! R10   R(5,14)                 1.9571         -DE/DX =    0.0                 !
 ! R11   R(8,9)                  0.964          -DE/DX =    0.0                 !
 ! R12   R(10,11)                0.9625         -DE/DX =    0.0                 !
 ! R13   R(12,13)                0.9623         -DE/DX =    0.0                 !
 ! R14   R(14,15)                0.9615         -DE/DX =    0.0                 !
 ! A1    A(2,1,3)              107.2664         -DE/DX =    0.0                 !
 ! A2    A(2,1,4)              117.39           -DE/DX =    0.0                 !
 ! A3    A(2,1,8)              105.8785         -DE/DX =    0.0                 !
 ! A4    A(3,1,4)              111.2486         -DE/DX =    0.0                 !
 ! A5    A(3,1,8)              114.414          -DE/DX =    0.0                 !
 ! A6    A(4,1,8)              100.684          -DE/DX =    0.0                 !
 ! A7    A(1,2,6)              115.5348         -DE/DX =    0.0                 !
 ! A8    A(1,3,7)              114.3145         -DE/DX =    0.0                 !
 ! A9    A(1,4,5)              118.8486         -DE/DX =   -0.0071              !
 ! A10   A(4,5,10)             112.3041         -DE/DX =    0.0                 !
 ! A11   A(4,5,12)             111.2748         -DE/DX =    0.0                 !
 ! A12   A(4,5,14)             106.6217         -DE/DX =    0.0                 !
 ! A13   A(10,5,12)            112.2552         -DE/DX =    0.0                 !
 ! A14   A(10,5,14)            106.2103         -DE/DX =    0.0                 !
 ! A15   A(12,5,14)            107.7734         -DE/DX =    0.0                 !
 ! A16   A(1,8,9)              115.9685         -DE/DX =    0.0                 !
 ! A17   A(5,10,11)            133.0486         -DE/DX =    0.0                 !
 ! A18   A(5,12,13)            133.6669         -DE/DX =    0.0                 !
 ! A19   A(5,14,15)            137.8647         -DE/DX =    0.0                 !
 ! D1    D(3,1,2,6)            -32.6514         -DE/DX =    0.0                 !
 ! D2    D(4,1,2,6)             93.3979         -DE/DX =    0.0                 !
 ! D3    D(8,1,2,6)           -155.2274         -DE/DX =    0.0                 !
 ! D4    D(2,1,3,7)            150.6438         -DE/DX =    0.0                 !
 ! D5    D(4,1,3,7)             21.019          -DE/DX =    0.0                 !
 ! D6    D(8,1,3,7)            -92.2441         -DE/DX =    0.0                 !
 ! D7    D(2,1,4,5)            106.0358         -DE/DX =    0.0                 !
 ! D8    D(3,1,4,5)           -129.8981         -DE/DX =    0.0                 !
 ! D9    D(8,1,4,5)             -8.2526         -DE/DX =    0.0                 !
 ! D10   D(2,1,8,9)              8.6786         -DE/DX =    0.0                 !
 ! D11   D(3,1,8,9)           -109.2266         -DE/DX =    0.0                 !
 ! D12   D(4,1,8,9)            131.3893         -DE/DX =    0.0                 !
 ! D13   D(1,4,5,10)            68.7598         -DE/DX =    0.0                 !
 ! D14   D(1,4,5,12)           -58.0402         -DE/DX =    0.0                 !
 ! D15   D(1,4,5,14)          -175.3049         -DE/DX =    0.0                 !
 ! D16   D(4,5,10,11)          -79.3352         -DE/DX =    0.0                 !
 ! D17   D(12,5,10,11)          46.9365         -DE/DX =    0.0                 !
 ! D18   D(14,5,10,11)         164.4816         -DE/DX =    0.0                 !
 ! D19   D(4,5,12,13)         -115.2401         -DE/DX =    0.0                 !
 ! D20   D(10,5,12,13)         117.9331         -DE/DX =    0.0                 !
 ! D21   D(14,5,12,13)           1.3223         -DE/DX =    0.0                 !
 ! D22   D(4,5,14,15)         -123.8613         -DE/DX =    0.0                 !
 ! D23   D(10,5,14,15)          -3.9104         -DE/DX =    0.0                 !
 ! D24   D(12,5,14,15)         116.5786         -DE/DX =    0.0                 !
 --------------------------------------------------------------------------------
 GradGradGradGradGradGradGradGradGradGradGradGradGradGradGradGradGradGrad

                          Input orientation:                          
 ---------------------------------------------------------------------
 Center     Atomic      Atomic             Coordinates (Angstroms)
 Number     Number       Type             X           Y           Z
 ---------------------------------------------------------------------
      1         14           0       -1.856721   -0.034246   -0.091062
      2          8           0       -2.730841    1.346198   -0.282881
      3          8           0       -2.918301   -1.295528   -0.132361
      4          8           0       -0.607337   -0.279340   -1.111201
      5         40           0        1.277173   -0.042168   -0.419887
      6          1           0       -3.511350    1.269039   -0.841695
      7          1           0       -2.544962   -2.117565   -0.469665
      8          8           0       -1.042142    0.137467    1.361770
      9          1           0       -1.292116    0.898168    1.898501
     10          8           0        1.777435   -1.433624    0.874218
     11          1           0        1.588437   -1.559508    1.809574
     12          8           0        1.553945    1.773182    0.292368
     13          1           0        2.112376    2.511761    0.030306
     14          8           0        2.469474   -0.269785   -1.955126
     15          1           0        3.217430   -0.821542   -2.201418
 ---------------------------------------------------------------------
                    Distance matrix (angstroms):
                    1          2          3          4          5
     1  Si   0.000000
     2  O    1.645146   0.000000
     3  O    1.649088   2.652643   0.000000
     4  O    1.631475   2.799598   2.707641   0.000000
     5  Zr   3.151108   4.243879   4.388119   2.021273   0.000000
     6  H    2.236023   0.963026   2.726144   3.302029   4.982684
     7  H    2.226484   3.473772   0.963795   2.746822   4.349537
     8  O    1.674439   2.649077   2.793900   2.545264   2.930153
     9  H    2.268598   2.651243   3.403114   3.303597   3.586140
    10  O    4.012120   5.421332   4.804395   3.310800   1.964973
    11  H    4.219947   5.610495   4.914417   3.871845   2.714720
    12  O    3.878976   4.344263   5.440438   3.294539   1.969620
    13  H    4.717055   4.991329   6.311071   4.060803   2.724479
    14  O    4.716585   5.696585   5.779511   3.190465   1.957128
    15  H    5.551617   6.615271   6.492524   4.013902   2.746976
                    6          7          8          9         10
     6  H    0.000000
     7  H    3.541383   0.000000
     8  O    3.497527   3.270748   0.000000
     9  H    3.545591   4.033916   0.963967   0.000000
    10  O    6.182231   4.577872   3.264360   3.988552   0.000000
    11  H    6.406069   4.753035   3.162310   3.787568   0.962526
    12  O    5.215119   5.702600   3.249439   3.383101   3.266818
    13  H    5.825035   6.585698   4.166659   4.205282   4.048510
    14  O    6.275186   5.546662   4.847588   5.510364   3.136659
    15  H    7.176061   6.154983   5.635598   6.332673   3.450764
                   11         12         13         14         15
    11  H    0.000000
    12  O    3.661956   0.000000
    13  H    4.473873   0.962300   0.000000
    14  O    4.075853   3.172245   3.436053   0.000000
    15  H    4.391614   3.964687   4.160847   0.961527   0.000000
 Stoichiometry    H6O7SiZr
 Framework group  C1[X(H6O7SiZr)]
 Deg. of freedom    39
 Full point group                 C1      NOp   1
 Largest Abelian subgroup         C1      NOp   1
 Largest concise Abelian subgroup C1      NOp   1
                         Standard orientation:                         
 ---------------------------------------------------------------------
 Center     Atomic      Atomic             Coordinates (Angstroms)
 Number     Number       Type             X           Y           Z
 ---------------------------------------------------------------------
      1         14           0       -1.966712   -0.049519   -0.107927
      2          8           0       -2.828727    1.292694   -0.510294
      3          8           0       -2.999076   -1.333564   -0.178237
      4          8           0       -0.599535   -0.343341   -0.948289
      5         40           0        1.183754   -0.012735   -0.056030
      6          1           0       -3.534460    1.156142   -1.151164
      7          1           0       -2.576953   -2.170286   -0.403201
      8          8           0       -1.337059    0.249730    1.414483
      9          1           0       -1.660195    1.043144    1.856423
     10          8           0        1.540862   -1.290777    1.393178
     11          1           0        1.241200   -1.349653    2.305972
     12          8           0        1.348501    1.857022    0.540854
     13          1           0        1.925094    2.585858    0.291131
     14          8           0        2.556667   -0.329398   -1.414405
     15          1           0        3.336056   -0.881476   -1.525302
 ---------------------------------------------------------------------
 Rotational constants (GHZ):           1.7404926           0.5730084           0.5565310

 **********************************************************************

            Population analysis using the SCF Density.

 **********************************************************************

 Orbital symmetries:
       Occupied  (A) (A) (A) (A) (A) (A) (A) (A) (A) (A) (A) (A)
                 (A) (A) (A) (A) (A) (A) (A) (A) (A) (A) (A) (A)
                 (A) (A) (A) (A) (A) (A) (A) (A) (A) (A) (A) (A)
                 (A) (A) (A) (A) (A) (A) (A) (A)
       Virtual   (A) (A) (A) (A) (A) (A) (A) (A) (A) (A) (A) (A)
                 (A) (A) (A) (A) (A) (A) (A) (A) (A) (A) (A) (A)
                 (A) (A) (A) (A) (A) (A) (A) (A) (A) (A) (A) (A)
                 (A) (A) (A) (A) (A) (A) (A) (A) (A) (A) (A) (A)
                 (A) (A) (A) (A) (A) (A) (A) (A) (A) (A) (A) (A)
                 (A) (A) (A) (A) (A) (A) (A) (A) (A) (A) (A) (A)
                 (A) (A) (A) (A) (A) (A) (A) (A) (A) (A) (A) (A)
                 (A) (A) (A) (A) (A) (A) (A) (A) (A) (A) (A) (A)
                 (A) (A) (A) (A) (A) (A) (A) (A) (A) (A) (A) (A)
                 (A) (A) (A) (A) (A) (A) (A) (A) (A) (A) (A) (A)
                 (A) (A) (A) (A)
 The electronic state is 1-A.
 Alpha  occ. eigenvalues --  -66.19265 -19.15340 -19.14835 -19.14831 -19.13769
 Alpha  occ. eigenvalues --  -19.13282 -19.13281 -19.12292  -5.33593  -3.69566
 Alpha  occ. eigenvalues --   -3.69516  -3.69487  -2.05762  -1.26488  -1.26379
 Alpha  occ. eigenvalues --   -1.26037  -1.02804  -0.99839  -0.99399  -0.95449
 Alpha  occ. eigenvalues --   -0.94573  -0.94156  -0.92987  -0.57247  -0.52361
 Alpha  occ. eigenvalues --   -0.51695  -0.48059  -0.47435  -0.46998  -0.43614
 Alpha  occ. eigenvalues --   -0.39059  -0.38009  -0.37357  -0.35567  -0.34818
 Alpha  occ. eigenvalues --   -0.34044  -0.33640  -0.33097  -0.32106  -0.31794
 Alpha  occ. eigenvalues --   -0.30935  -0.30608  -0.29988  -0.29708
 Alpha virt. eigenvalues --   -0.01540  -0.00813  -0.00059   0.00510   0.01539
 Alpha virt. eigenvalues --    0.02200   0.02802   0.03101   0.03942   0.08662
 Alpha virt. eigenvalues --    0.09585   0.11099   0.14986   0.15465   0.16054
 Alpha virt. eigenvalues --    0.17145   0.18048   0.19237   0.19737   0.23375
 Alpha virt. eigenvalues --    0.23934   0.24498   0.24950   0.26297   0.27574
 Alpha virt. eigenvalues --    0.30316   0.31764   0.34264   0.37767   0.39731
 Alpha virt. eigenvalues --    0.41802   0.56618   0.64338   0.72560   0.79219
 Alpha virt. eigenvalues --    0.80598   0.83992   0.86101   0.87161   0.88218
 Alpha virt. eigenvalues --    0.90933   0.92166   0.93118   0.95772   0.95880
 Alpha virt. eigenvalues --    0.98142   0.98988   0.99776   1.01477   1.04625
 Alpha virt. eigenvalues --    1.06442   1.07806   1.08084   1.09416   1.11310
 Alpha virt. eigenvalues --    1.14357   1.17241   1.18280   1.19843   1.21336
 Alpha virt. eigenvalues --    1.23391   1.26209   1.27501   1.37144   1.46897
 Alpha virt. eigenvalues --    1.48067   1.50286   1.52980   1.54613   1.57206
 Alpha virt. eigenvalues --    1.57880   1.58522   1.60679   1.62939   1.63079
 Alpha virt. eigenvalues --    1.63551   1.64455   1.65787   1.68494   1.70540
 Alpha virt. eigenvalues --    1.73344   1.75030   1.79673   1.80237   1.81458
 Alpha virt. eigenvalues --    1.82331   1.83942   1.85023   1.87147   1.88086
 Alpha virt. eigenvalues --    1.91045   1.92333   2.02240   2.08299   2.14061
 Alpha virt. eigenvalues --    2.35720   2.36324   2.36686   2.37395   2.38308
 Alpha virt. eigenvalues --    2.39258   2.43882   2.57010   2.60496   2.62011
 Alpha virt. eigenvalues --    2.63138   2.64059   2.64285   2.64682   2.64848
 Alpha virt. eigenvalues --    2.64973   2.65333   2.65679   2.66867   2.73068
 Alpha virt. eigenvalues --    2.77569   2.82260   3.41184   3.42237   3.43116
 Alpha virt. eigenvalues --    3.44162   3.44742   3.46821   4.05276
          Condensed to atoms (all electrons):
               1          2          3          4          5          6
     1  Si  11.540536   0.388940   0.394322   0.339829  -0.078351  -0.021804
     2  O    0.388940   7.955361  -0.020605  -0.010992   0.003186   0.303799
     3  O    0.394322  -0.020605   7.949885  -0.018057  -0.001189  -0.000909
     4  O    0.339829  -0.010992  -0.018057   8.284719   0.183867  -0.000323
     5  Zr  -0.078351   0.003186  -0.001189   0.183867   9.768328  -0.000973
     6  H   -0.021804   0.303799  -0.000909  -0.000323  -0.000973   0.382739
     7  H   -0.019513   0.000383   0.301381   0.001596  -0.002411  -0.000054
     8  O    0.283378  -0.018804  -0.013509  -0.033444   0.090108   0.000625
     9  H   -0.013569   0.000708  -0.000307   0.001056  -0.007353   0.000016
    10  O   -0.005282  -0.000000   0.000001   0.000422   0.223883  -0.000000
    11  H    0.000133  -0.000000   0.000001  -0.000125  -0.016743   0.000000
    12  O   -0.005929   0.000004   0.000000   0.000465   0.221436  -0.000000
    13  H    0.000255  -0.000001   0.000000  -0.000026  -0.015831  -0.000000
    14  O    0.000046   0.000000  -0.000000   0.000837   0.211464   0.000000
    15  H   -0.000026   0.000000   0.000000  -0.000045  -0.014795  -0.000000
               7          8          9         10         11         12
     1  Si  -0.019513   0.283378  -0.013569  -0.005282   0.000133  -0.005929
     2  O    0.000383  -0.018804   0.000708  -0.000000  -0.000000   0.000004
     3  O    0.301381  -0.013509  -0.000307   0.000001   0.000001   0.000000
     4  O    0.001596  -0.033444   0.001056   0.000422  -0.000125   0.000465
     5  Zr  -0.002411   0.090108  -0.007353   0.223883  -0.016743   0.221436
     6  H   -0.000054   0.000625   0.000016  -0.000000   0.000000  -0.000000
     7  H    0.385910  -0.000301   0.000059  -0.000006  -0.000002   0.000000
     8  O   -0.000301   8.021047   0.300538  -0.002111  -0.000207  -0.002083
     9  H    0.000059   0.300538   0.372991   0.000015  -0.000011   0.000198
    10  O   -0.000006  -0.002111   0.000015   8.176537   0.295872   0.000833
    11  H   -0.000002  -0.000207  -0.000011   0.295872   0.388246  -0.000348
    12  O    0.000000  -0.002083   0.000198   0.000833  -0.000348   8.183714
    13  H    0.000000   0.000057  -0.000013  -0.000055   0.000001   0.294062
    14  O   -0.000000  -0.000006   0.000001   0.001048   0.000016   0.000810
    15  H    0.000000  -0.000001   0.000000  -0.000578   0.000000  -0.000098
              13         14         15
     1  Si   0.000255   0.000046  -0.000026
     2  O   -0.000001   0.000000   0.000000
     3  O    0.000000  -0.000000   0.000000
     4  O   -0.000026   0.000837  -0.000045
     5  Zr  -0.015831   0.211464  -0.014795
     6  H   -0.000000   0.000000  -0.000000
     7  H    0.000000  -0.000000   0.000000
     8  O    0.000057  -0.000006  -0.000001
     9  H   -0.000013   0.000001   0.000000
    10  O   -0.000055   0.001048  -0.000578
    11  H    0.000001   0.000016   0.000000
    12  O    0.294062   0.000810  -0.000098
    13  H    0.393714  -0.000903  -0.000004
    14  O   -0.000903   8.180510   0.297637
    15  H   -0.000004   0.297637   0.384578
 Mulliken charges:
               1
     1  Si   1.197034
     2  O   -0.601978
     3  O   -0.591016
     4  O   -0.749779
     5  Zr   1.435373
     6  H    0.336885
     7  H    0.332957
     8  O   -0.625289
     9  H    0.345672
    10  O   -0.690579
    11  H    0.333165
    12  O   -0.693063
    13  H    0.328745
    14  O   -0.691459
    15  H    0.333332
 Sum of Mulliken charges =  -0.00000
 Mulliken charges with hydrogens summed into heavy atoms:
               1
     1  Si   1.197034
     2  O   -0.265093
     3  O   -0.258059
     4  O   -0.749779
     5  Zr   1.435373
     8  O   -0.279617
    10  O   -0.357415
    12  O   -0.364318
    14  O   -0.358127
 Electronic spatial extent (au):  <R**2>=           1966.1196
 Charge=              0.0000 electrons
 Dipole moment (field-independent basis, Debye):
    X=              0.5150    Y=             -0.0121    Z=              0.4268  Tot=              0.6689
 Quadrupole moment (field-independent basis, Debye-Ang):
   XX=            -66.1880   YY=            -68.4279   ZZ=            -70.9841
   XY=              0.4249   XZ=              1.3120   YZ=              1.4571
 Traceless Quadrupole moment (field-independent basis, Debye-Ang):
   XX=              2.3454   YY=              0.1054   ZZ=             -2.4508
   XY=              0.4249   XZ=              1.3120   YZ=              1.4571
 Octapole moment (field-independent basis, Debye-Ang**2):
  XXX=             49.4710  YYY=             -1.6450  ZZZ=             20.6028  XYY=             14.3282
  XXY=             11.2445  XXZ=            -25.7100  XZZ=             -0.0282  YZZ=             -0.6498
  YYZ=             -4.1879  XYZ=              2.0738
 Hexadecapole moment (field-independent basis, Debye-Ang**3):
 XXXX=          -1470.2948 YYYY=           -351.7287 ZZZZ=           -320.9278 XXXY=            -80.2002
 XXXZ=             17.0853 YYYX=             78.1816 YYYZ=             11.9426 ZZZX=             15.3372
 ZZZY=            -12.0648 XXYY=           -294.5371 XXZZ=           -288.2039 YYZZ=           -115.4098
 XXYZ=             22.8692 YYXZ=             -7.7753 ZZXY=            -34.8731
 N-N= 6.550944255481D+02 E-N=-3.346733661099D+03  KE= 8.297862350402D+02
 1\1\GINC-GRA599\FOpt\RB3LYP\Gen\H6O7Si1Zr1\SARASHS\24-Jun-2020\0\\#n B
 3LYP/GEN PSEUDO=READ Opt(modredundant)\\Title\\0,1\Si,-1.8567207043,-0
 .0342461207,-0.0910621639\O,-2.7308407957,1.3461978717,-0.2828814031\O
 ,-2.9183013477,-1.2955278423,-0.1323612855\O,-0.6073373441,-0.27933950
 68,-1.1112007406\Zr,1.2771733322,-0.0421675539,-0.4198871195\H,-3.5113
 495985,1.26903859,-0.8416946106\H,-2.5449620877,-2.1175646522,-0.46966
 49175\O,-1.0421423274,0.1374672818,1.3617701416\H,-1.2921158385,0.8981
 683833,1.8985010158\O,1.7774346159,-1.4336238736,0.8742182736\H,1.5884
 37198,-1.5595081215,1.8095737695\O,1.5539450633,1.7731817184,0.2923679
 408\H,2.1123755719,2.5117609528,0.0303057186\O,2.4694739674,-0.2697849
 455,-1.9551263567\H,3.2174302955,-0.8215421814,-2.2014182627\\Version=
 ES64L-G16RevB.01\State=1-A\HF=-866.6878905\RMSD=2.988e-09\RMSF=6.996e-
 04\Dipole=0.2211684,-0.0204047,0.14119\Quadrupole=1.9438353,-0.1071554
 ,-1.8366799,0.3600493,0.5734545,1.1696691\PG=C01 [X(H6O7Si1Zr1)]\\@


  ON THE CHOICE OF THE CORRECT LANGUAGE -
 I SPEAK SPANISH TO GOD, ITALIAN TO WOMEN,
 FRENCH TO MEN, AND GERMAN TO MY HORSE.
          -- CHARLES V
 Job cpu time:       0 days  0 hours 46 minutes 57.4 seconds.
 Elapsed time:       0 days  0 hours  3 minutes  9.8 seconds.
 File lengths (MBytes):  RWF=     23 Int=      0 D2E=      0 Chk=      3 Scr=      1
 Normal termination of Gaussian 16 at Wed Jun 24 13:57:00 2020.
