15
	Energy: -543854.4718975
Si        -1.90698       -0.04093       -0.13187
O         -2.77661        1.33183       -0.36828
O         -2.96472       -1.30138       -0.09409
O         -0.62539       -0.32160       -1.09659
Zr         1.16538       -0.02672       -0.14191
H         -3.57833        1.23701       -0.89318
H         -2.59505       -2.14280       -0.38501
O         -1.07346        0.19403        1.32035
H         -1.20745        1.04108        1.76425
O          1.63115       -1.48755        1.09285
H          1.42933       -1.64085        2.02135
O          1.36893        1.78760        0.63090
H          2.02046        2.45612        0.39141
O          2.51444       -0.12943       -1.55310
H          3.27415       -0.64351       -1.83824
