15
	Energy: -543854.4718975
Si        -1.90698       -0.04093       -0.13187
O         -2.77661        1.33183       -0.36828
O         -2.96472       -1.30138       -0.09409
O         -0.62539       -0.32160       -1.09659
Zr         1.11280       -0.01738       -0.05191
H         -3.57833        1.23701       -0.89318
H         -2.59505       -2.14280       -0.38501
O         -1.07346        0.19403        1.32035
H         -1.20745        1.04108        1.76425
O          1.52728       -1.48004        1.19885
H          1.28026       -1.63893        2.11542
O          1.26316        1.79502        0.73740
H          1.92069        2.46949        0.53365
O          2.53182       -0.10371       -1.39389
H          3.30888       -0.61077       -1.64253
