 Entering Gaussian System, Link 0=g16
 Initial command:
 /opt/software/gaussian/g16.b01/l1.exe "/localscratch/sarashs.33453159.0/Gau-19850.inp" -scrdir="/localscratch/sarashs.33453159.0/"
 Entering Link 1 = /opt/software/gaussian/g16.b01/l1.exe PID=     19851.
  
 Copyright (c) 1988-2017, Gaussian, Inc.  All Rights Reserved.
  
 This is part of the Gaussian(R) 16 program.  It is based on
 the Gaussian(R) 09 system (copyright 2009, Gaussian, Inc.),
 the Gaussian(R) 03 system (copyright 2003, Gaussian, Inc.),
 the Gaussian(R) 98 system (copyright 1998, Gaussian, Inc.),
 the Gaussian(R) 94 system (copyright 1995, Gaussian, Inc.),
 the Gaussian 92(TM) system (copyright 1992, Gaussian, Inc.),
 the Gaussian 90(TM) system (copyright 1990, Gaussian, Inc.),
 the Gaussian 88(TM) system (copyright 1988, Gaussian, Inc.),
 the Gaussian 86(TM) system (copyright 1986, Carnegie Mellon
 University), and the Gaussian 82(TM) system (copyright 1983,
 Carnegie Mellon University). Gaussian is a federally registered
 trademark of Gaussian, Inc.
  
 This software contains proprietary and confidential information,
 including trade secrets, belonging to Gaussian, Inc.
  
 This software is provided under written license and may be
 used, copied, transmitted, or stored only in accord with that
 written license.
  
 The following legend is applicable only to US Government
 contracts under FAR:
  
                    RESTRICTED RIGHTS LEGEND
  
 Use, reproduction and disclosure by the US Government is
 subject to restrictions as set forth in subparagraphs (a)
 and (c) of the Commercial Computer Software - Restricted
 Rights clause in FAR 52.227-19.
  
 Gaussian, Inc.
 340 Quinnipiac St., Bldg. 40, Wallingford CT 06492
  
  
 ---------------------------------------------------------------
 Warning -- This program may not be used in any manner that
 competes with the business of Gaussian, Inc. or will provide
 assistance to any competitor of Gaussian, Inc.  The licensee
 of this program is prohibited from giving any competitor of
 Gaussian, Inc. access to this program.  By using this program,
 the user acknowledges that Gaussian, Inc. is engaged in the
 business of creating and licensing software in the field of
 computational chemistry and represents and warrants to the
 licensee that it is not a competitor of Gaussian, Inc. and that
 it will not use this program in any manner prohibited above.
 ---------------------------------------------------------------
  

 Cite this work as:
 Gaussian 16, Revision B.01,
 M. J. Frisch, G. W. Trucks, H. B. Schlegel, G. E. Scuseria, 
 M. A. Robb, J. R. Cheeseman, G. Scalmani, V. Barone, 
 G. A. Petersson, H. Nakatsuji, X. Li, M. Caricato, A. V. Marenich, 
 J. Bloino, B. G. Janesko, R. Gomperts, B. Mennucci, H. P. Hratchian, 
 J. V. Ortiz, A. F. Izmaylov, J. L. Sonnenberg, D. Williams-Young, 
 F. Ding, F. Lipparini, F. Egidi, J. Goings, B. Peng, A. Petrone, 
 T. Henderson, D. Ranasinghe, V. G. Zakrzewski, J. Gao, N. Rega, 
 G. Zheng, W. Liang, M. Hada, M. Ehara, K. Toyota, R. Fukuda, 
 J. Hasegawa, M. Ishida, T. Nakajima, Y. Honda, O. Kitao, H. Nakai, 
 T. Vreven, K. Throssell, J. A. Montgomery, Jr., J. E. Peralta, 
 F. Ogliaro, M. J. Bearpark, J. J. Heyd, E. N. Brothers, K. N. Kudin, 
 V. N. Staroverov, T. A. Keith, R. Kobayashi, J. Normand, 
 K. Raghavachari, A. P. Rendell, J. C. Burant, S. S. Iyengar, 
 J. Tomasi, M. Cossi, J. M. Millam, M. Klene, C. Adamo, R. Cammi, 
 J. W. Ochterski, R. L. Martin, K. Morokuma, O. Farkas, 
 J. B. Foresman, and D. J. Fox, Gaussian, Inc., Wallingford CT, 2016.
 
 ******************************************
 Gaussian 16:  ES64L-G16RevB.01 20-Dec-2017
                24-Jun-2020 
 ******************************************
 %NProcShared=16
 Will use up to   16 processors via shared memory.
 ------------------------------------------
 #n B3LYP/GEN PSEUDO=READ Opt(modredundant)
 ------------------------------------------
 1/18=120,19=15,26=3,38=1/1,3;
 2/9=110,12=2,17=6,18=5,40=1/2;
 3/5=7,11=2,16=1,17=8,25=1,30=1,71=1,74=-5/1,2,3;
 4//1;
 5/5=2,38=5/2;
 6/7=2,8=2,9=2,10=2,28=1/1;
 7//1,2,3,16;
 1/18=20,19=15,26=3/3(2);
 2/9=110/2;
 99//99;
 2/9=110/2;
 3/5=7,6=1,11=2,16=1,17=8,25=1,30=1,71=1,74=-5,82=7/1,2,3;
 4/5=5,16=3,69=1/1;
 5/5=2,38=5/2;
 7//1,2,3,16;
 1/18=20,19=15,26=3/3(-5);
 2/9=110/2;
 6/7=2,8=2,9=2,10=2,19=2,28=1/1;
 99/9=1/99;
 -----
 Title
 -----
 Symbolic Z-matrix:
 Charge =  0 Multiplicity = 1
 Si                   -1.90698  -0.04093  -0.13187 
 O                    -2.77661   1.33183  -0.36828 
 O                    -2.96472  -1.30138  -0.09409 
 O                    -0.62539  -0.3216   -1.09659 
 Zr                    1.3818   -0.09986  -0.73988 
 H                    -3.57833   1.23701  -0.89318 
 H                    -2.59505  -2.1428   -0.38501 
 O                    -1.07346   0.19403   1.32035 
 H                    -1.20745   1.04108   1.76425 
 O                     2.13895  -1.55964   0.34241 
 H                     2.22301  -1.68576   1.29287 
 O                     1.88761   1.71564  -0.12461 
 H                     2.46305   2.34612  -0.57198 
 O                     2.2317   -0.2958   -2.48952 
 H                     2.84607  -0.85249  -2.97468 
 
 The following ModRedundant input section has been read:
 A       1       4       5 F                                                   
 

 GradGradGradGradGradGradGradGradGradGradGradGradGradGradGradGradGradGrad
 Berny optimization.
 Initialization pass.
                           ----------------------------
                           !    Initial Parameters    !
                           ! (Angstroms and Degrees)  !
 --------------------------                            --------------------------
 ! Name  Definition              Value          Derivative Info.                !
 --------------------------------------------------------------------------------
 ! R1    R(1,2)                  1.6421         estimate D2E/DX2                !
 ! R2    R(1,3)                  1.6459         estimate D2E/DX2                !
 ! R3    R(1,4)                  1.6285         estimate D2E/DX2                !
 ! R4    R(1,8)                  1.6908         estimate D2E/DX2                !
 ! R5    R(2,6)                  0.9629         estimate D2E/DX2                !
 ! R6    R(3,7)                  0.964          estimate D2E/DX2                !
 ! R7    R(4,5)                  2.0507         estimate D2E/DX2                !
 ! R8    R(5,10)                 1.9687         estimate D2E/DX2                !
 ! R9    R(5,12)                 1.9825         estimate D2E/DX2                !
 ! R10   R(5,14)                 1.955          estimate D2E/DX2                !
 ! R11   R(8,9)                  0.9657         estimate D2E/DX2                !
 ! R12   R(10,11)                0.9625         estimate D2E/DX2                !
 ! R13   R(12,13)                0.9637         estimate D2E/DX2                !
 ! R14   R(14,15)                0.9606         estimate D2E/DX2                !
 ! A1    A(2,1,3)              107.6477         estimate D2E/DX2                !
 ! A2    A(2,1,4)              118.3958         estimate D2E/DX2                !
 ! A3    A(2,1,8)              105.5776         estimate D2E/DX2                !
 ! A4    A(3,1,4)              112.7909         estimate D2E/DX2                !
 ! A5    A(3,1,8)              113.7977         estimate D2E/DX2                !
 ! A6    A(4,1,8)               98.3257         estimate D2E/DX2                !
 ! A7    A(1,2,6)              115.9167         estimate D2E/DX2                !
 ! A8    A(1,3,7)              114.5237         estimate D2E/DX2                !
 ! A9    A(1,4,5)              130.4375         Frozen                          !
 ! A10   A(4,5,10)             113.0728         estimate D2E/DX2                !
 ! A11   A(4,5,12)             113.7489         estimate D2E/DX2                !
 ! A12   A(4,5,14)             105.0109         estimate D2E/DX2                !
 ! A13   A(10,5,12)            114.2235         estimate D2E/DX2                !
 ! A14   A(10,5,14)            104.507          estimate D2E/DX2                !
 ! A15   A(12,5,14)            104.9878         estimate D2E/DX2                !
 ! A16   A(1,8,9)              116.6352         estimate D2E/DX2                !
 ! A17   A(5,10,11)            132.3501         estimate D2E/DX2                !
 ! A18   A(5,12,13)            127.3991         estimate D2E/DX2                !
 ! A19   A(5,14,15)            142.0124         estimate D2E/DX2                !
 ! D1    D(3,1,2,6)            -31.5445         estimate D2E/DX2                !
 ! D2    D(4,1,2,6)             97.8074         estimate D2E/DX2                !
 ! D3    D(8,1,2,6)           -153.4334         estimate D2E/DX2                !
 ! D4    D(2,1,3,7)            151.7162         estimate D2E/DX2                !
 ! D5    D(4,1,3,7)             19.2636         estimate D2E/DX2                !
 ! D6    D(8,1,3,7)            -91.6497         estimate D2E/DX2                !
 ! D7    D(2,1,4,5)            102.467          estimate D2E/DX2                !
 ! D8    D(3,1,4,5)           -130.5944         estimate D2E/DX2                !
 ! D9    D(8,1,4,5)            -10.3405         estimate D2E/DX2                !
 ! D10   D(2,1,8,9)             -0.7356         estimate D2E/DX2                !
 ! D11   D(3,1,8,9)           -118.5698         estimate D2E/DX2                !
 ! D12   D(4,1,8,9)            121.931          estimate D2E/DX2                !
 ! D13   D(1,4,5,10)            77.681          estimate D2E/DX2                !
 ! D14   D(1,4,5,12)           -54.7463         estimate D2E/DX2                !
 ! D15   D(1,4,5,14)          -168.9829         estimate D2E/DX2                !
 ! D16   D(4,5,10,11)          -88.2375         estimate D2E/DX2                !
 ! D17   D(12,5,10,11)          43.9578         estimate D2E/DX2                !
 ! D18   D(14,5,10,11)         158.1209         estimate D2E/DX2                !
 ! D19   D(4,5,12,13)         -116.9741         estimate D2E/DX2                !
 ! D20   D(10,5,12,13)         111.1553         estimate D2E/DX2                !
 ! D21   D(14,5,12,13)          -2.7238         estimate D2E/DX2                !
 ! D22   D(4,5,14,15)         -117.1593         estimate D2E/DX2                !
 ! D23   D(10,5,14,15)           2.0822         estimate D2E/DX2                !
 ! D24   D(12,5,14,15)         122.6134         estimate D2E/DX2                !
 --------------------------------------------------------------------------------
 Trust Radius=3.00D-01 FncErr=1.00D-07 GrdErr=1.00D-06 EigMax=2.50D+02 EigMin=1.00D-04
 Number of steps in this run=     67 maximum allowed number of steps=    100.
 GradGradGradGradGradGradGradGradGradGradGradGradGradGradGradGradGradGrad

                          Input orientation:                          
 ---------------------------------------------------------------------
 Center     Atomic      Atomic             Coordinates (Angstroms)
 Number     Number       Type             X           Y           Z
 ---------------------------------------------------------------------
      1         14           0       -1.906980   -0.040930   -0.131870
      2          8           0       -2.776610    1.331830   -0.368280
      3          8           0       -2.964720   -1.301380   -0.094090
      4          8           0       -0.625390   -0.321600   -1.096590
      5         40           0        1.381800   -0.099860   -0.739880
      6          1           0       -3.578330    1.237010   -0.893180
      7          1           0       -2.595050   -2.142800   -0.385010
      8          8           0       -1.073460    0.194030    1.320350
      9          1           0       -1.207450    1.041080    1.764250
     10          8           0        2.138950   -1.559640    0.342410
     11          1           0        2.223010   -1.685760    1.292870
     12          8           0        1.887610    1.715640   -0.124610
     13          1           0        2.463050    2.346120   -0.571980
     14          8           0        2.231700   -0.295800   -2.489520
     15          1           0        2.846070   -0.852490   -2.974680
 ---------------------------------------------------------------------
                    Distance matrix (angstroms):
                    1          2          3          4          5
     1  Si   0.000000
     2  O    1.642138   0.000000
     3  O    1.645897   2.654121   0.000000
     4  O    1.628476   2.809273   2.727167   0.000000
     5  Zr   3.345030   4.413638   4.555539   2.050664   0.000000
     6  H    2.237439   0.962946   2.731023   3.345220   5.139417
     7  H    2.226068   3.479411   0.963991   2.775370   4.484961
     8  O    1.690830   2.654577   2.795310   2.511621   3.218574
     9  H    2.292457   2.663547   3.468219   3.221816   3.778442
    10  O    4.347525   5.747035   5.128809   3.353362   1.968651
    11  H    4.668208   6.071365   5.383674   3.960282   2.711971
    12  O    4.181448   4.686324   5.713882   3.377908   1.982534
    13  H    4.998887   5.340816   6.556929   4.114658   2.679573
    14  O    4.769921   5.677324   5.809652   3.178661   1.954984
    15  H    5.597471   6.571081   6.501122   3.982474   2.775765
                    6          7          8          9         10
     6  H    0.000000
     7  H    3.556430   0.000000
     8  O    3.501699   3.268679   0.000000
     9  H    3.566706   4.084341   0.965657   0.000000
    10  O    6.483458   4.824932   3.788311   4.470321   0.000000
    11  H    6.853973   5.122291   3.794875   4.407484   0.962469
    12  O    5.540423   5.920271   3.629207   3.688119   3.317942
    13  H    6.150737   6.765333   4.551847   4.542430   4.024439
    14  O    6.217255   5.580133   5.067457   5.631124   3.102535
    15  H    7.069057   6.162554   5.908062   6.517215   3.464559
                   11         12         13         14         15
    11  H    0.000000
    12  O    3.700171   0.000000
    13  H    4.448746   0.963730   0.000000
    14  O    4.029707   3.123634   3.272648   0.000000
    15  H    4.392553   3.954344   4.018803   0.960591   0.000000
 Stoichiometry    H6O7SiZr
 Framework group  C1[X(H6O7SiZr)]
 Deg. of freedom    39
 Full point group                 C1      NOp   1
 Largest Abelian subgroup         C1      NOp   1
 Largest concise Abelian subgroup C1      NOp   1
                         Standard orientation:                         
 ---------------------------------------------------------------------
 Center     Atomic      Atomic             Coordinates (Angstroms)
 Number     Number       Type             X           Y           Z
 ---------------------------------------------------------------------
      1         14           0       -2.096381   -0.044511   -0.092078
      2          8           0       -2.937307    1.287385   -0.556311
      3          8           0       -3.106423   -1.338652   -0.210348
      4          8           0       -0.640715   -0.316418   -0.769602
      5         40           0        1.247933   -0.011864   -0.031037
      6          1           0       -3.615013    1.145171   -1.225457
      7          1           0       -2.663803   -2.177025   -0.384979
      8          8           0       -1.576754    0.273499    1.485186
      9          1           0       -1.819294    1.131414    1.856199
     10          8           0        1.811796   -1.402891    1.242811
     11          1           0        1.707348   -1.490325    2.195592
     12          8           0        1.572014    1.841886    0.592681
     13          1           0        2.208353    2.474780    0.241550
     14          8           0        2.435553   -0.243553   -1.566564
     15          1           0        3.149128   -0.796341   -1.895151
 ---------------------------------------------------------------------
 Rotational constants (GHZ):           1.7122916           0.5246476           0.5102415
 General basis read from cards:  (5D, 7F)
 ======================================================================================================
                                       Pseudopotential Parameters
 ======================================================================================================
  Center     Atomic      Valence      Angular      Power
  Number     Number     Electrons     Momentum     of R      Exponent        Coefficient   SO-Coeffient
 ======================================================================================================
    1         14
                                   No pseudopotential on this center.
    2          8
                                   No pseudopotential on this center.
    3          8
                                   No pseudopotential on this center.
    4          8
                                   No pseudopotential on this center.
    5         40           12
                                      F and up 
                                                     0      645.9321873       -0.04258430    0.00000000
                                                     1      134.7547401      -20.22224090    0.00000000
                                                     2       42.3074619     -101.86951720    0.00000000
                                                     2       12.0003227      -41.61957840    0.00000000
                                                     2        4.1260454       -4.69861600    0.00000000
                                      S - F
                                                     0      117.6251862        2.79105590    0.00000000
                                                     1       22.9646089       41.94894590    0.00000000
                                                     2        4.5225298       67.72718660    0.00000000
                                      P - F
                                                     0       47.1953145        4.99111440    0.00000000
                                                     1       48.0356033       20.71931720    0.00000000
                                                     2       19.4541456      195.58677580    0.00000000
                                                     2        4.0512875       48.28771760    0.00000000
                                      D - F
                                                     0       79.9073983        3.00492260    0.00000000
                                                     1       45.8263798       25.93779890    0.00000000
                                                     2       26.9903522      125.12449340    0.00000000
                                                     2        9.6835718       70.76340220    0.00000000
                                                     2        2.7995666       15.04928220    0.00000000
    6          1
                                   No pseudopotential on this center.
    7          1
                                   No pseudopotential on this center.
    8          8
                                   No pseudopotential on this center.
    9          1
                                   No pseudopotential on this center.
   10          8
                                   No pseudopotential on this center.
   11          1
                                   No pseudopotential on this center.
   12          8
                                   No pseudopotential on this center.
   13          1
                                   No pseudopotential on this center.
   14          8
                                   No pseudopotential on this center.
   15          1
                                   No pseudopotential on this center.
 ======================================================================================================
 There are   178 symmetry adapted cartesian basis functions of A   symmetry.
 There are   168 symmetry adapted basis functions of A   symmetry.
   168 basis functions,   339 primitive gaussians,   178 cartesian basis functions
    44 alpha electrons       44 beta electrons
       nuclear repulsion energy       641.7696906682 Hartrees.
 NAtoms=   15 NActive=   15 NUniq=   15 SFac= 1.00D+00 NAtFMM=   60 NAOKFM=F Big=F
 Integral buffers will be    131072 words long.
 Raffenetti 2 integral format.
 Two-electron integral symmetry is turned on.
 One-electron integrals computed using PRISM.
   1 Symmetry operations used in ECPInt.
 ECPInt:  NShTT=    1770 NPrTT=   10201 LenC2=    1641 LenP2D=    6579.
 LDataN:  DoStor=T MaxTD1= 5 Len=  102
 NBasis=   168 RedAO= T EigKep=  1.32D-02  NBF=   168
 NBsUse=   168 1.00D-06 EigRej= -1.00D+00 NBFU=   168
 Defaulting to unpruned grid for atomic number  40.
 ExpMin= 2.43D-02 ExpMax= 1.61D+04 ExpMxC= 2.43D+03 IAcc=3 IRadAn=         5 AccDes= 0.00D+00
 Harris functional with IExCor=  402 and IRadAn=       5 diagonalized for initial guess.
 HarFok:  IExCor=  402 AccDes= 0.00D+00 IRadAn=         5 IDoV= 1 UseB2=F ITyADJ=14
 ICtDFT=  3500011 ScaDFX=  1.000000  1.000000  1.000000  1.000000
 Defaulting to unpruned grid for atomic number  40.
 FoFCou: FMM=F IPFlag=           0 FMFlag=      100000 FMFlg1=           0
         NFxFlg=           0 DoJE=T BraDBF=F KetDBF=T FulRan=T
         wScrn=  0.000000 ICntrl=       500 IOpCl=  0 I1Cent=   200000004 NGrid=           0
         NMat0=    1 NMatS0=      1 NMatT0=    0 NMatD0=    1 NMtDS0=    0 NMtDT0=    0
 Petite list used in FoFCou.
 Requested convergence on RMS density matrix=1.00D-08 within 128 cycles.
 Requested convergence on MAX density matrix=1.00D-06.
 Requested convergence on             energy=1.00D-06.
 No special actions if energy rises.
 Defaulting to unpruned grid for atomic number  40.
 Defaulting to unpruned grid for atomic number  40.
 Defaulting to unpruned grid for atomic number  40.
 Defaulting to unpruned grid for atomic number  40.
 Defaulting to unpruned grid for atomic number  40.
 Defaulting to unpruned grid for atomic number  40.
 Defaulting to unpruned grid for atomic number  40.
 Defaulting to unpruned grid for atomic number  40.
 Defaulting to unpruned grid for atomic number  40.
 Defaulting to unpruned grid for atomic number  40.
 Defaulting to unpruned grid for atomic number  40.
 Defaulting to unpruned grid for atomic number  40.
 Defaulting to unpruned grid for atomic number  40.
 Defaulting to unpruned grid for atomic number  40.
 Defaulting to unpruned grid for atomic number  40.
 Defaulting to unpruned grid for atomic number  40.
 SCF Done:  E(RB3LYP) =  -866.681936242     A.U. after   14 cycles
            NFock= 14  Conv=0.54D-08     -V/T= 2.0446

 **********************************************************************

            Population analysis using the SCF Density.

 **********************************************************************

 Orbital symmetries:
       Occupied  (A) (A) (A) (A) (A) (A) (A) (A) (A) (A) (A) (A)
                 (A) (A) (A) (A) (A) (A) (A) (A) (A) (A) (A) (A)
                 (A) (A) (A) (A) (A) (A) (A) (A) (A) (A) (A) (A)
                 (A) (A) (A) (A) (A) (A) (A) (A)
       Virtual   (A) (A) (A) (A) (A) (A) (A) (A) (A) (A) (A) (A)
                 (A) (A) (A) (A) (A) (A) (A) (A) (A) (A) (A) (A)
                 (A) (A) (A) (A) (A) (A) (A) (A) (A) (A) (A) (A)
                 (A) (A) (A) (A) (A) (A) (A) (A) (A) (A) (A) (A)
                 (A) (A) (A) (A) (A) (A) (A) (A) (A) (A) (A) (A)
                 (A) (A) (A) (A) (A) (A) (A) (A) (A) (A) (A) (A)
                 (A) (A) (A) (A) (A) (A) (A) (A) (A) (A) (A) (A)
                 (A) (A) (A) (A) (A) (A) (A) (A) (A) (A) (A) (A)
                 (A) (A) (A) (A) (A) (A) (A) (A) (A) (A) (A) (A)
                 (A) (A) (A) (A) (A) (A) (A) (A) (A) (A) (A) (A)
                 (A) (A) (A) (A)
 The electronic state is 1-A.
 Alpha  occ. eigenvalues --  -66.18885 -19.14757 -19.14660 -19.14288 -19.13973
 Alpha  occ. eigenvalues --  -19.13727 -19.13657 -19.11802  -5.33146  -3.69131
 Alpha  occ. eigenvalues --   -3.69079  -3.69029  -2.06593  -1.27264  -1.27129
 Alpha  occ. eigenvalues --   -1.26544  -1.02228  -0.99393  -0.98291  -0.95851
 Alpha  occ. eigenvalues --   -0.95164  -0.94637  -0.92427  -0.56724  -0.51749
 Alpha  occ. eigenvalues --   -0.50722  -0.48759  -0.47776  -0.47175  -0.43528
 Alpha  occ. eigenvalues --   -0.38254  -0.37382  -0.36106  -0.35371  -0.34949
 Alpha  occ. eigenvalues --   -0.34257  -0.33373  -0.33085  -0.32133  -0.31957
 Alpha  occ. eigenvalues --   -0.31295  -0.30947  -0.29796  -0.28728
 Alpha virt. eigenvalues --   -0.02392  -0.01725  -0.00451   0.00526   0.01550
 Alpha virt. eigenvalues --    0.01728   0.01742   0.02600   0.02952   0.08567
 Alpha virt. eigenvalues --    0.09451   0.10648   0.14849   0.15098   0.15930
 Alpha virt. eigenvalues --    0.16923   0.18062   0.19499   0.19842   0.23068
 Alpha virt. eigenvalues --    0.23547   0.24054   0.24867   0.26496   0.28163
 Alpha virt. eigenvalues --    0.28568   0.30053   0.33422   0.37045   0.39494
 Alpha virt. eigenvalues --    0.43120   0.57111   0.65027   0.71791   0.79408
 Alpha virt. eigenvalues --    0.80566   0.83483   0.85198   0.86582   0.88551
 Alpha virt. eigenvalues --    0.91440   0.92568   0.93463   0.94644   0.95297
 Alpha virt. eigenvalues --    0.97763   0.99057   0.99565   0.99909   1.04704
 Alpha virt. eigenvalues --    1.05266   1.07180   1.08625   1.09505   1.10821
 Alpha virt. eigenvalues --    1.13715   1.17150   1.17846   1.20107   1.20888
 Alpha virt. eigenvalues --    1.23497   1.25869   1.26313   1.36364   1.46183
 Alpha virt. eigenvalues --    1.47938   1.49457   1.51457   1.52481   1.56831
 Alpha virt. eigenvalues --    1.57791   1.58519   1.60369   1.60658   1.63084
 Alpha virt. eigenvalues --    1.63748   1.64962   1.65925   1.69017   1.70304
 Alpha virt. eigenvalues --    1.72853   1.76862   1.79495   1.79729   1.81232
 Alpha virt. eigenvalues --    1.81570   1.82789   1.84479   1.85710   1.87633
 Alpha virt. eigenvalues --    1.89786   1.92946   2.01415   2.09273   2.13832
 Alpha virt. eigenvalues --    2.35932   2.36159   2.36810   2.37478   2.37780
 Alpha virt. eigenvalues --    2.38832   2.43639   2.56740   2.60115   2.61379
 Alpha virt. eigenvalues --    2.63400   2.63587   2.64301   2.64357   2.64597
 Alpha virt. eigenvalues --    2.64650   2.64934   2.65393   2.67555   2.72927
 Alpha virt. eigenvalues --    2.77509   2.83022   3.40983   3.41956   3.42977
 Alpha virt. eigenvalues --    3.43883   3.44808   3.46106   3.87530
          Condensed to atoms (all electrons):
               1          2          3          4          5          6
     1  Si  11.506975   0.386841   0.392461   0.350080  -0.049959  -0.021686
     2  O    0.386841   7.955883  -0.020218  -0.010271   0.002195   0.303455
     3  O    0.392461  -0.020218   7.948254  -0.016713  -0.001110  -0.000750
     4  O    0.350080  -0.010271  -0.016713   8.282074   0.186517  -0.000306
     5  Zr  -0.049959   0.002195  -0.001110   0.186517   9.727415  -0.000863
     6  H   -0.021686   0.303455  -0.000750  -0.000306  -0.000863   0.383903
     7  H   -0.020170   0.000388   0.301850   0.001166  -0.001648  -0.000045
     8  O    0.292049  -0.019001  -0.013427  -0.039735   0.076386   0.000614
     9  H   -0.016210   0.000713  -0.000146   0.001231  -0.005467   0.000024
    10  O   -0.002935  -0.000000   0.000001   0.000367   0.217289  -0.000000
    11  H   -0.000024  -0.000000   0.000000  -0.000064  -0.015354   0.000000
    12  O   -0.003084   0.000002   0.000000   0.000490   0.221344   0.000000
    13  H    0.000131  -0.000000  -0.000000  -0.000005  -0.017605  -0.000000
    14  O   -0.000202   0.000000   0.000000   0.000449   0.216554   0.000000
    15  H   -0.000030   0.000000  -0.000000  -0.000056  -0.015968  -0.000000
               7          8          9         10         11         12
     1  Si  -0.020170   0.292049  -0.016210  -0.002935  -0.000024  -0.003084
     2  O    0.000388  -0.019001   0.000713  -0.000000  -0.000000   0.000002
     3  O    0.301850  -0.013427  -0.000146   0.000001   0.000000   0.000000
     4  O    0.001166  -0.039735   0.001231   0.000367  -0.000064   0.000490
     5  Zr  -0.001648   0.076386  -0.005467   0.217289  -0.015354   0.221344
     6  H   -0.000045   0.000614   0.000024  -0.000000   0.000000   0.000000
     7  H    0.385301  -0.000272   0.000049  -0.000000  -0.000000  -0.000000
     8  O   -0.000272   8.042939   0.297210  -0.000363  -0.000132  -0.000614
     9  H    0.000049   0.297210   0.386649  -0.000007   0.000003   0.000093
    10  O   -0.000000  -0.000363  -0.000007   8.182363   0.294103   0.000871
    11  H   -0.000000  -0.000132   0.000003   0.294103   0.388763  -0.000286
    12  O   -0.000000  -0.000614   0.000093   0.000871  -0.000286   8.181029
    13  H   -0.000000   0.000011  -0.000007  -0.000051  -0.000001   0.293638
    14  O   -0.000000  -0.000002   0.000000   0.000842  -0.000010   0.000559
    15  H    0.000000  -0.000000   0.000000  -0.000585   0.000002  -0.000122
              13         14         15
     1  Si   0.000131  -0.000202  -0.000030
     2  O   -0.000000   0.000000   0.000000
     3  O   -0.000000   0.000000  -0.000000
     4  O   -0.000005   0.000449  -0.000056
     5  Zr  -0.017605   0.216554  -0.015968
     6  H   -0.000000   0.000000  -0.000000
     7  H   -0.000000  -0.000000   0.000000
     8  O    0.000011  -0.000002  -0.000000
     9  H   -0.000007   0.000000   0.000000
    10  O   -0.000051   0.000842  -0.000585
    11  H   -0.000001  -0.000010   0.000002
    12  O    0.293638   0.000559  -0.000122
    13  H    0.392091  -0.001475  -0.000006
    14  O   -0.001475   8.168771   0.299821
    15  H   -0.000006   0.299821   0.381961
 Mulliken charges:
               1
     1  Si   1.185763
     2  O   -0.599988
     3  O   -0.590203
     4  O   -0.755223
     5  Zr   1.460274
     6  H    0.335654
     7  H    0.333381
     8  O   -0.635665
     9  H    0.335864
    10  O   -0.691894
    11  H    0.333001
    12  O   -0.693920
    13  H    0.333279
    14  O   -0.685307
    15  H    0.334983
 Sum of Mulliken charges =  -0.00000
 Mulliken charges with hydrogens summed into heavy atoms:
               1
     1  Si   1.185763
     2  O   -0.264334
     3  O   -0.256822
     4  O   -0.755223
     5  Zr   1.460274
     8  O   -0.299800
    10  O   -0.358892
    12  O   -0.360642
    14  O   -0.350324
 Electronic spatial extent (au):  <R**2>=           2104.9617
 Charge=              0.0000 electrons
 Dipole moment (field-independent basis, Debye):
    X=              1.2380    Y=             -0.2520    Z=             -0.2227  Tot=              1.2829
 Quadrupole moment (field-independent basis, Debye-Ang):
   XX=            -66.4533   YY=            -69.2759   ZZ=            -69.6854
   XY=              0.1695   XZ=              1.9403   YZ=              1.1144
 Traceless Quadrupole moment (field-independent basis, Debye-Ang):
   XX=              2.0182   YY=             -0.8044   ZZ=             -1.2139
   XY=              0.1695   XZ=              1.9403   YZ=              1.1144
 Octapole moment (field-independent basis, Debye-Ang**2):
  XXX=             52.2952  YYY=             -4.6927  ZZZ=             13.0193  XYY=             11.9743
  XXY=             14.2538  XXZ=            -30.2504  XZZ=             10.2095  YZZ=             -4.7038
  YYZ=             -3.8494  XYZ=             -0.0377
 Hexadecapole moment (field-independent basis, Debye-Ang**3):
 XXXX=          -1658.6526 YYYY=           -371.9183 ZZZZ=           -324.0264 XXXY=            -62.3806
 XXXZ=             15.4118 YYYX=             76.1550 YYYZ=              6.4532 ZZZX=             17.8891
 ZZZY=             -8.4442 XXYY=           -323.0495 XXZZ=           -288.6627 YYZZ=           -112.8324
 XXYZ=             17.5377 YYXZ=            -10.4457 ZZXY=            -51.5851
 N-N= 6.417696906682D+02 E-N=-3.320078925689D+03  KE= 8.296726761749D+02
   1 Symmetry operations used in ECPInt.
 ECPInt:  NShTT=    1770 NPrTT=   10201 LenC2=    1641 LenP2D=    6579.
 LDataN:  DoStor=T MaxTD1= 6 Len=  172
 Calling FoFJK, ICntrl=      2127 FMM=F ISym2X=0 I1Cent= 0 IOpClX= 0 NMat=1 NMatS=1 NMatT=0.
 Defaulting to unpruned grid for atomic number  40.
 Defaulting to unpruned grid for atomic number  40.
 Defaulting to unpruned grid for atomic number  40.
 Defaulting to unpruned grid for atomic number  40.
 Defaulting to unpruned grid for atomic number  40.
 Defaulting to unpruned grid for atomic number  40.
 Defaulting to unpruned grid for atomic number  40.
 Defaulting to unpruned grid for atomic number  40.
 Defaulting to unpruned grid for atomic number  40.
 Defaulting to unpruned grid for atomic number  40.
 Defaulting to unpruned grid for atomic number  40.
 Defaulting to unpruned grid for atomic number  40.
 Defaulting to unpruned grid for atomic number  40.
 Defaulting to unpruned grid for atomic number  40.
 Defaulting to unpruned grid for atomic number  40.
 Defaulting to unpruned grid for atomic number  40.
 ***** Axes restored to original set *****
 -------------------------------------------------------------------
 Center     Atomic                   Forces (Hartrees/Bohr)
 Number     Number              X              Y              Z
 -------------------------------------------------------------------
      1       14           0.019302694    0.004284543    0.018985795
      2        8          -0.001425150    0.001120315   -0.002825621
      3        8          -0.000303639   -0.001268820   -0.002311547
      4        8           0.009663297   -0.001894362   -0.010476890
      5       40          -0.013687270    0.000900013   -0.008938999
      6        1          -0.000024517    0.000117359   -0.000090803
      7        1          -0.000090897    0.000194526    0.000306120
      8        8          -0.004546961    0.001725384   -0.001106124
      9        1          -0.002715898   -0.002597337   -0.001020928
     10        8          -0.003221445    0.003830309    0.002694048
     11        1           0.001219838   -0.001471294    0.000539295
     12        8          -0.002112628   -0.006709810   -0.000173654
     13        1          -0.000371278    0.000909625    0.000920754
     14        8          -0.001902424    0.001535296    0.002738228
     15        1           0.000216279   -0.000675748    0.000760326
 -------------------------------------------------------------------
 Cartesian Forces:  Max     0.019302694 RMS     0.005551484

 GradGradGradGradGradGradGradGradGradGradGradGradGradGradGradGradGradGrad
 Berny optimization.
 FormGI is forming the generalized inverse of G from B-inverse, IUseBI=4.
 Internal  Forces:  Max     0.020257975 RMS     0.004790226
 Search for a local minimum.
 Step number   1 out of a maximum of   67
 All quantities printed in internal units (Hartrees-Bohrs-Radians)
 Mixed Optimization -- RFO/linear search
 Second derivative matrix not updated -- first step.
 ITU=  0
     Eigenvalues ---    0.00230   0.00230   0.00230   0.00230   0.03138
     Eigenvalues ---    0.03732   0.03782   0.03962   0.07595   0.10447
     Eigenvalues ---    0.11446   0.11649   0.12384   0.13641   0.15842
     Eigenvalues ---    0.16000   0.16000   0.16000   0.16000   0.16000
     Eigenvalues ---    0.16000   0.18952   0.19683   0.19789   0.19910
     Eigenvalues ---    0.19986   0.20440   0.21460   0.37017   0.43277
     Eigenvalues ---    0.43863   0.46083   0.54274   0.54624   0.54679
     Eigenvalues ---    0.54844   0.54946   0.553471000.000001000.00000
     Eigenvalues --- 1000.000001000.000001000.000001000.000001000.00000
     Eigenvalues --- 1000.000001000.000001000.000001000.000001000.00000
     Eigenvalues --- 1000.000001000.000001000.000001000.000001000.00000
     Eigenvalues --- 1000.000001000.00000
 RFO step:  Lambda=-6.14087016D-03 EMin= 2.30000000D-03
 Linear search not attempted -- first point.
 Iteration  1 RMS(Cart)=  0.06184621 RMS(Int)=  0.00108819
 Iteration  2 RMS(Cart)=  0.00188561 RMS(Int)=  0.00040083
 Iteration  3 RMS(Cart)=  0.00000070 RMS(Int)=  0.00040083
 Iteration  1 RMS(Cart)=  0.00000000 RMS(Int)=  0.00000000
 Variable       Old X    -DE/DX   Delta X   Delta X   Delta X     New X
                                 (Linear)    (Quad)   (Total)
    R1        3.10319   0.00222   0.00000   0.00500   0.00500   3.10819
    R2        3.11029   0.00103   0.00000   0.00235   0.00235   3.11264
    R3        3.07737  -0.00034   0.00000  -0.00072  -0.00072   3.07665
    R4        3.19520  -0.00553   0.00000  -0.01469  -0.01469   3.18051
    R5        1.81970   0.00006   0.00000   0.00011   0.00011   1.81981
    R6        1.82168  -0.00030   0.00000  -0.00054  -0.00054   1.82114
    R7        3.87519  -0.01987   0.00000  -0.12076  -0.12076   3.75444
    R8        3.72021  -0.00074   0.00000  -0.00365  -0.00365   3.71656
    R9        3.74645  -0.00571   0.00000  -0.02920  -0.02920   3.71725
   R10        3.69438  -0.00395   0.00000  -0.01876  -0.01876   3.67562
   R11        1.82483  -0.00237   0.00000  -0.00432  -0.00432   1.82051
   R12        1.81880   0.00083   0.00000   0.00150   0.00150   1.82030
   R13        1.82119  -0.00005   0.00000  -0.00010  -0.00010   1.82109
   R14        1.81525   0.00015   0.00000   0.00026   0.00026   1.81551
    A1        1.87881   0.00161   0.00000  -0.00941  -0.01015   1.86866
    A2        2.06640  -0.00295   0.00000  -0.01897  -0.02000   2.04640
    A3        1.84268  -0.00147   0.00000   0.00317   0.00325   1.84593
    A4        1.96857  -0.00526   0.00000  -0.03114  -0.03185   1.93672
    A5        1.98615  -0.00209   0.00000  -0.00426  -0.00398   1.98216
    A6        1.71611   0.01074   0.00000   0.06868   0.06887   1.78497
    A7        2.02313   0.00020   0.00000   0.00120   0.00120   2.02433
    A8        1.99882   0.00008   0.00000   0.00048   0.00048   1.99929
    A9        2.27656  -0.02026   0.00000   0.00000   0.00000   2.27656
   A10        1.97349  -0.00105   0.00000  -0.01755  -0.01882   1.95468
   A11        1.98529  -0.00170   0.00000  -0.02129  -0.02248   1.96281
   A12        1.83279   0.00237   0.00000   0.02963   0.02979   1.86257
   A13        1.99358  -0.00276   0.00000  -0.02819  -0.02924   1.96434
   A14        1.82399   0.00223   0.00000   0.02699   0.02724   1.85123
   A15        1.83238   0.00220   0.00000   0.02609   0.02640   1.85878
   A16        2.03567  -0.00309   0.00000  -0.01860  -0.01860   2.01706
   A17        2.30995   0.00319   0.00000   0.01920   0.01920   2.32915
   A18        2.22353   0.00242   0.00000   0.01459   0.01459   2.23812
   A19        2.47858  -0.00187   0.00000  -0.01125  -0.01125   2.46733
    D1       -0.55056   0.00197   0.00000   0.01938   0.01926  -0.53130
    D2        1.70706  -0.00648   0.00000  -0.05015  -0.04990   1.65716
    D3       -2.67792   0.00438   0.00000   0.02759   0.02746  -2.65045
    D4        2.64795  -0.00152   0.00000  -0.01536  -0.01513   2.63282
    D5        0.33621   0.00538   0.00000   0.04387   0.04354   0.37975
    D6       -1.59959  -0.00349   0.00000  -0.02004  -0.01994  -1.61953
    D7        1.78839   0.00364   0.00000   0.04362   0.04312   1.83151
    D8       -2.27930  -0.00196   0.00000  -0.01879  -0.01817  -2.29747
    D9       -0.18048  -0.00042   0.00000   0.00262   0.00249  -0.17798
   D10       -0.01284   0.00109   0.00000   0.03035   0.02990   0.01706
   D11       -2.06943   0.00122   0.00000   0.04214   0.04237  -2.02706
   D12        2.12810   0.00191   0.00000   0.03987   0.04008   2.16818
   D13        1.35579  -0.00368   0.00000  -0.07128  -0.07093   1.28486
   D14       -0.95550   0.00306   0.00000   0.00821   0.00783  -0.94768
   D15       -2.94931  -0.00017   0.00000  -0.03044  -0.03041  -2.97972
   D16       -1.54004   0.00310   0.00000   0.01744   0.01699  -1.52305
   D17        0.76721  -0.00316   0.00000  -0.05905  -0.05853   0.70868
   D18        2.75973  -0.00050   0.00000  -0.02501  -0.02508   2.73465
   D19       -2.04158  -0.00301   0.00000  -0.02721  -0.02667  -2.06825
   D20        1.94003   0.00298   0.00000   0.04805   0.04747   1.98750
   D21       -0.04754   0.00032   0.00000   0.01356   0.01360  -0.03394
   D22       -2.04482  -0.00023   0.00000  -0.00172  -0.00173  -2.04654
   D23        0.03634   0.00065   0.00000   0.00393   0.00397   0.04031
   D24        2.14001  -0.00043   0.00000  -0.00352  -0.00356   2.13645
         Item               Value     Threshold  Converged?
 Maximum Force            0.019872     0.000450     NO 
 RMS     Force            0.004003     0.000300     NO 
 Maximum Displacement     0.146282     0.001800     NO 
 RMS     Displacement     0.062088     0.001200     NO 
 Predicted change in Energy=-3.196149D-03
 GradGradGradGradGradGradGradGradGradGradGradGradGradGradGradGradGradGrad

                          Input orientation:                          
 ---------------------------------------------------------------------
 Center     Atomic      Atomic             Coordinates (Angstroms)
 Number     Number       Type             X           Y           Z
 ---------------------------------------------------------------------
      1         14           0       -1.848319   -0.027439   -0.100054
      2          8           0       -2.732317    1.336195   -0.353739
      3          8           0       -2.899574   -1.295352   -0.118140
      4          8           0       -0.591946   -0.298072   -1.099540
      5         40           0        1.361801   -0.104561   -0.795162
      6          1           0       -3.521842    1.232550   -0.895293
      7          1           0       -2.517641   -2.127939   -0.417568
      8          8           0       -1.084376    0.192273    1.383452
      9          1           0       -1.281125    1.020879    1.833771
     10          8           0        2.074598   -1.537244    0.348220
     11          1           0        2.157447   -1.644292    1.301923
     12          8           0        1.847707    1.688587   -0.148686
     13          1           0        2.419996    2.339597   -0.569813
     14          8           0        2.221771   -0.319426   -2.526497
     15          1           0        2.838020   -0.890308   -2.992684
 ---------------------------------------------------------------------
                    Distance matrix (angstroms):
                    1          2          3          4          5
     1  Si   0.000000
     2  O    1.644782   0.000000
     3  O    1.647139   2.647362   0.000000
     4  O    1.628093   2.794322   2.698677   0.000000
     5  Zr   3.285422   4.362617   4.476121   1.986761   0.000000
     6  H    2.240682   0.963002   2.716887   3.311919   5.064372
     7  H    2.227309   3.471366   0.963706   2.742590   4.391663
     8  O    1.683054   2.653695   2.786171   2.578405   3.289111
     9  H    2.271642   2.643971   3.434277   3.289211   3.893964
    10  O    4.227261   5.644096   5.001838   3.277501   1.966718
    11  H    4.541576   5.961066   5.264199   3.890822   2.720586
    12  O    4.075258   4.598135   5.607272   3.286768   1.967083
    13  H    4.903269   5.253554   6.458691   4.038527   2.672914
    14  O    4.747475   5.657291   5.742890   3.154943   1.945054
    15  H    5.574372   6.553624   6.430167   3.962247   2.761471
                    6          7          8          9         10
     6  H    0.000000
     7  H    3.539707   0.000000
     8  O    3.495153   3.268227   0.000000
     9  H    3.537430   4.063564   0.963372   0.000000
    10  O    6.366963   4.692974   3.747272   4.473447   0.000000
    11  H    6.734858   5.004699   3.726800   4.382896   0.963262
    12  O    5.440354   5.804691   3.630911   3.763716   3.271755
    13  H    6.052844   6.660504   4.550479   4.605922   3.998997
    14  O    6.169160   5.493662   5.145886   5.751402   3.125498
    15  H    7.025198   6.070095   5.975595   6.626813   3.487546
                   11         12         13         14         15
    11  H    0.000000
    12  O    3.648053   0.000000
    13  H    4.409501   0.963678   0.000000
    14  O    4.051692   3.134649   3.307312   0.000000
    15  H    4.413085   3.964813   4.059229   0.960729   0.000000
 Stoichiometry    H6O7SiZr
 Framework group  C1[X(H6O7SiZr)]
 Deg. of freedom    39
 Full point group                 C1      NOp   1
 Largest Abelian subgroup         C1      NOp   1
 Largest concise Abelian subgroup C1      NOp   1
                         Standard orientation:                         
 ---------------------------------------------------------------------
 Center     Atomic      Atomic             Coordinates (Angstroms)
 Number     Number       Type             X           Y           Z
 ---------------------------------------------------------------------
      1         14           0       -2.047831   -0.046810   -0.084145
      2          8           0       -2.896408    1.241125   -0.655498
      3          8           0       -3.025955   -1.365792   -0.213090
      4          8           0       -0.590755   -0.334649   -0.751053
      5         40           0        1.237144   -0.012069   -0.042571
      6          1           0       -3.540156    1.049657   -1.345645
      7          1           0       -2.559396   -2.199415   -0.340075
      8          8           0       -1.644545    0.339329    1.503599
      9          1           0       -1.964550    1.191755    1.818321
     10          8           0        1.721266   -1.301730    1.361132
     11          1           0        1.591076   -1.322262    2.315335
     12          8           0        1.506221    1.853115    0.521436
     13          1           0        2.136863    2.495269    0.177046
     14          8           0        2.470865   -0.328117   -1.512701
     15          1           0        3.194518   -0.903153   -1.774731
 ---------------------------------------------------------------------
 Rotational constants (GHZ):           1.7084486           0.5358589           0.5243874
 Basis read from rwf:  (5D, 7F)
 Pseudo-potential data read from rwf file.
 There are   178 symmetry adapted cartesian basis functions of A   symmetry.
 There are   168 symmetry adapted basis functions of A   symmetry.
   168 basis functions,   339 primitive gaussians,   178 cartesian basis functions
    44 alpha electrons       44 beta electrons
       nuclear repulsion energy       645.7722170689 Hartrees.
 NAtoms=   15 NActive=   15 NUniq=   15 SFac= 1.00D+00 NAtFMM=   60 NAOKFM=F Big=F
 Integral buffers will be    131072 words long.
 Raffenetti 2 integral format.
 Two-electron integral symmetry is turned on.
 One-electron integrals computed using PRISM.
   1 Symmetry operations used in ECPInt.
 ECPInt:  NShTT=    1770 NPrTT=   10201 LenC2=    1646 LenP2D=    6598.
 LDataN:  DoStor=T MaxTD1= 5 Len=  102
 NBasis=   168 RedAO= T EigKep=  1.22D-02  NBF=   168
 NBsUse=   168 1.00D-06 EigRej= -1.00D+00 NBFU=   168
 Defaulting to unpruned grid for atomic number  40.
 Initial guess from the checkpoint file:  "/localscratch/sarashs.33453159.0/Gau-19851.chk"
 B after Tr=     0.000000    0.000000    0.000000
         Rot=    0.999642    0.025464    0.007913   -0.002394 Ang=   3.07 deg.
 ExpMin= 2.43D-02 ExpMax= 1.61D+04 ExpMxC= 2.43D+03 IAcc=3 IRadAn=         5 AccDes= 0.00D+00
 Harris functional with IExCor=  402 and IRadAn=       5 diagonalized for initial guess.
 HarFok:  IExCor=  402 AccDes= 0.00D+00 IRadAn=         5 IDoV= 1 UseB2=F ITyADJ=14
 ICtDFT=  3500011 ScaDFX=  1.000000  1.000000  1.000000  1.000000
 Defaulting to unpruned grid for atomic number  40.
 FoFCou: FMM=F IPFlag=           0 FMFlag=      100000 FMFlg1=           0
         NFxFlg=           0 DoJE=T BraDBF=F KetDBF=T FulRan=T
         wScrn=  0.000000 ICntrl=       500 IOpCl=  0 I1Cent=   200000004 NGrid=           0
         NMat0=    1 NMatS0=      1 NMatT0=    0 NMatD0=    1 NMtDS0=    0 NMtDT0=    0
 Petite list used in FoFCou.
 Requested convergence on RMS density matrix=1.00D-08 within 128 cycles.
 Requested convergence on MAX density matrix=1.00D-06.
 Requested convergence on             energy=1.00D-06.
 No special actions if energy rises.
 Defaulting to unpruned grid for atomic number  40.
 Defaulting to unpruned grid for atomic number  40.
 Defaulting to unpruned grid for atomic number  40.
 Defaulting to unpruned grid for atomic number  40.
 Defaulting to unpruned grid for atomic number  40.
 Defaulting to unpruned grid for atomic number  40.
 Defaulting to unpruned grid for atomic number  40.
 Defaulting to unpruned grid for atomic number  40.
 Defaulting to unpruned grid for atomic number  40.
 Defaulting to unpruned grid for atomic number  40.
 Defaulting to unpruned grid for atomic number  40.
 Defaulting to unpruned grid for atomic number  40.
 Defaulting to unpruned grid for atomic number  40.
 Defaulting to unpruned grid for atomic number  40.
 Defaulting to unpruned grid for atomic number  40.
 Defaulting to unpruned grid for atomic number  40.
 SCF Done:  E(RB3LYP) =  -866.685337079     A.U. after   11 cycles
            NFock= 11  Conv=0.78D-08     -V/T= 2.0444
   1 Symmetry operations used in ECPInt.
 ECPInt:  NShTT=    1770 NPrTT=   10201 LenC2=    1646 LenP2D=    6598.
 LDataN:  DoStor=T MaxTD1= 6 Len=  172
 Calling FoFJK, ICntrl=      2127 FMM=F ISym2X=0 I1Cent= 0 IOpClX= 0 NMat=1 NMatS=1 NMatT=0.
 Defaulting to unpruned grid for atomic number  40.
 Defaulting to unpruned grid for atomic number  40.
 Defaulting to unpruned grid for atomic number  40.
 Defaulting to unpruned grid for atomic number  40.
 Defaulting to unpruned grid for atomic number  40.
 Defaulting to unpruned grid for atomic number  40.
 Defaulting to unpruned grid for atomic number  40.
 Defaulting to unpruned grid for atomic number  40.
 Defaulting to unpruned grid for atomic number  40.
 Defaulting to unpruned grid for atomic number  40.
 Defaulting to unpruned grid for atomic number  40.
 Defaulting to unpruned grid for atomic number  40.
 Defaulting to unpruned grid for atomic number  40.
 Defaulting to unpruned grid for atomic number  40.
 Defaulting to unpruned grid for atomic number  40.
 Defaulting to unpruned grid for atomic number  40.
 ***** Axes restored to original set *****
 -------------------------------------------------------------------
 Center     Atomic                   Forces (Hartrees/Bohr)
 Number     Number              X              Y              Z
 -------------------------------------------------------------------
      1       14           0.004692612    0.003633853    0.016591487
      2        8           0.000238689    0.001312067   -0.001462997
      3        8          -0.000112665   -0.001630658   -0.001012575
      4        8          -0.007809586   -0.002095674   -0.008322210
      5       40           0.007072185   -0.001766591    0.000993241
      6        1           0.000379389   -0.000321583   -0.000083063
      7        1          -0.000198122    0.000008519    0.000154430
      8        8          -0.002890237   -0.001213872   -0.007276636
      9        1          -0.001614074   -0.000334784   -0.000089015
     10        8          -0.001895038    0.001177035    0.003447448
     11        1           0.000724212   -0.000871035   -0.000708670
     12        8           0.000137826    0.001402903    0.000645198
     13        1          -0.000436533    0.001020979    0.001289561
     14        8           0.001553858   -0.000088162   -0.004520365
     15        1           0.000157484   -0.000232996    0.000354167
 -------------------------------------------------------------------
 Cartesian Forces:  Max     0.016591487 RMS     0.003710970

 GradGradGradGradGradGradGradGradGradGradGradGradGradGradGradGradGradGrad
 Berny optimization.
 Using GEDIIS/GDIIS optimizer.
 FormGI is forming the generalized inverse of G from B-inverse, IUseBI=4.
 Internal  Forces:  Max     0.008821472 RMS     0.002462808
 Search for a local minimum.
 Step number   2 out of a maximum of   67
 All quantities printed in internal units (Hartrees-Bohrs-Radians)
 Mixed Optimization -- RFO/linear search
 Update second derivatives using D2CorX and points    1    2
 DE= -3.40D-03 DEPred=-3.20D-03 R= 1.06D+00
 TightC=F SS=  1.41D+00  RLast= 2.32D-01 DXNew= 5.0454D-01 6.9469D-01
 Trust test= 1.06D+00 RLast= 2.32D-01 DXMaxT set to 5.05D-01
 ITU=  1  0
 Use linear search instead of GDIIS.
     Eigenvalues ---    0.00230   0.00230   0.00230   0.00230   0.03030
     Eigenvalues ---    0.03731   0.03781   0.03960   0.06094   0.10396
     Eigenvalues ---    0.10990   0.11134   0.12364   0.13067   0.15479
     Eigenvalues ---    0.15999   0.16000   0.16000   0.16000   0.16000
     Eigenvalues ---    0.18334   0.19478   0.19719   0.19940   0.19991
     Eigenvalues ---    0.20038   0.20676   0.25455   0.37876   0.43280
     Eigenvalues ---    0.43836   0.46746   0.54304   0.54623   0.54679
     Eigenvalues ---    0.54846   0.54984   0.553461000.000001000.00000
     Eigenvalues --- 1000.000001000.000001000.000001000.000001000.00000
     Eigenvalues --- 1000.000001000.000001000.000001000.000001000.00000
     Eigenvalues --- 1000.000001000.000001000.000001000.000001000.00000
     Eigenvalues --- 1000.000001000.00000
 RFO step:  Lambda=-1.76268765D-03 EMin= 2.29556317D-03
 Quartic linear search produced a step of  0.08542.
 Iteration  1 RMS(Cart)=  0.05563605 RMS(Int)=  0.00102009
 Iteration  2 RMS(Cart)=  0.00162890 RMS(Int)=  0.00033841
 Iteration  3 RMS(Cart)=  0.00000081 RMS(Int)=  0.00033841
 Iteration  1 RMS(Cart)=  0.00000000 RMS(Int)=  0.00000000
 Variable       Old X    -DE/DX   Delta X   Delta X   Delta X     New X
                                 (Linear)    (Quad)   (Total)
    R1        3.10819   0.00073   0.00043   0.00278   0.00320   3.11139
    R2        3.11264   0.00146   0.00020   0.00407   0.00427   3.11691
    R3        3.07665   0.00405  -0.00006   0.00925   0.00919   3.08584
    R4        3.18051  -0.00874  -0.00126  -0.02817  -0.02942   3.15109
    R5        1.81981  -0.00023   0.00001  -0.00043  -0.00042   1.81939
    R6        1.82114  -0.00013  -0.00005  -0.00037  -0.00042   1.82073
    R7        3.75444   0.00748  -0.01031   0.02662   0.01631   3.77074
    R8        3.71656   0.00094  -0.00031   0.00438   0.00407   3.72063
    R9        3.71725   0.00277  -0.00249   0.00982   0.00733   3.72458
   R10        3.67562   0.00450  -0.00160   0.01974   0.01814   3.69376
   R11        1.82051  -0.00000  -0.00037  -0.00087  -0.00124   1.81927
   R12        1.82030  -0.00054   0.00013  -0.00076  -0.00063   1.81967
   R13        1.82109  -0.00013  -0.00001  -0.00028  -0.00029   1.82080
   R14        1.81551   0.00007   0.00002   0.00018   0.00020   1.81572
    A1        1.86866   0.00148  -0.00087   0.00220   0.00092   1.86958
    A2        2.04640  -0.00218  -0.00171  -0.01877  -0.02090   2.02550
    A3        1.84593   0.00010   0.00028   0.00556   0.00596   1.85189
    A4        1.93672  -0.00174  -0.00272  -0.01868  -0.02174   1.91499
    A5        1.98216  -0.00052  -0.00034  -0.00008  -0.00029   1.98187
    A6        1.78497   0.00287   0.00588   0.03169   0.03772   1.82269
    A7        2.02433  -0.00072   0.00010  -0.00457  -0.00446   2.01986
    A8        1.99929   0.00035   0.00004   0.00240   0.00244   2.00174
    A9        2.27656  -0.00882   0.00000   0.00000  -0.00000   2.27656
   A10        1.95468  -0.00105  -0.00161  -0.01855  -0.02134   1.93333
   A11        1.96281  -0.00182  -0.00192  -0.02468  -0.02766   1.93515
   A12        1.86257   0.00128   0.00254   0.02218   0.02497   1.88755
   A13        1.96434  -0.00111  -0.00250  -0.02017  -0.02382   1.94052
   A14        1.85123   0.00163   0.00233   0.02583   0.02835   1.87958
   A15        1.85878   0.00161   0.00225   0.02408   0.02661   1.88539
   A16        2.01706  -0.00172  -0.00159  -0.01507  -0.01665   2.00041
   A17        2.32915   0.00215   0.00164   0.01803   0.01967   2.34881
   A18        2.23812   0.00308   0.00125   0.02330   0.02454   2.26267
   A19        2.46733  -0.00079  -0.00096  -0.00744  -0.00840   2.45893
    D1       -0.53130   0.00086   0.00164   0.01051   0.01210  -0.51920
    D2        1.65716  -0.00184  -0.00426  -0.02675  -0.03087   1.62630
    D3       -2.65045   0.00064   0.00235   0.00650   0.00876  -2.64169
    D4        2.63282  -0.00118  -0.00129  -0.01272  -0.01396   2.61886
    D5        0.37975   0.00174   0.00372   0.02294   0.02657   0.40632
    D6       -1.61953  -0.00041  -0.00170  -0.00455  -0.00622  -1.62575
    D7        1.83151   0.00079   0.00368   0.01865   0.02195   1.85346
    D8       -2.29747  -0.00042  -0.00155  -0.00957  -0.01074  -2.30821
    D9       -0.17798  -0.00021   0.00021  -0.00036  -0.00015  -0.17813
   D10        0.01706   0.00161   0.00255   0.03310   0.03544   0.05250
   D11       -2.02706   0.00003   0.00362   0.02694   0.03067  -1.99639
   D12        2.16818   0.00058   0.00342   0.02957   0.03311   2.20129
   D13        1.28486  -0.00225  -0.00606  -0.08666  -0.09224   1.19263
   D14       -0.94768   0.00166   0.00067  -0.02297  -0.02282  -0.97050
   D15       -2.97972  -0.00009  -0.00260  -0.05230  -0.05486  -3.03458
   D16       -1.52305   0.00194   0.00145   0.00102   0.00202  -1.52103
   D17        0.70868  -0.00234  -0.00500  -0.06513  -0.06966   0.63902
   D18        2.73465  -0.00001  -0.00214  -0.03116  -0.03333   2.70132
   D19       -2.06825  -0.00176  -0.00228  -0.01683  -0.01853  -2.08679
   D20        1.98750   0.00214   0.00405   0.04640   0.04989   2.03739
   D21       -0.03394  -0.00020   0.00116   0.01140   0.01254  -0.02140
   D22       -2.04654  -0.00033  -0.00015  -0.01195  -0.01213  -2.05867
   D23        0.04031  -0.00007   0.00034  -0.00917  -0.00885   0.03146
   D24        2.13645   0.00029  -0.00030  -0.00724  -0.00751   2.12894
         Item               Value     Threshold  Converged?
 Maximum Force            0.008738     0.000450     NO 
 RMS     Force            0.002187     0.000300     NO 
 Maximum Displacement     0.130356     0.001800     NO 
 RMS     Displacement     0.055920     0.001200     NO 
 Predicted change in Energy=-9.349890D-04
 GradGradGradGradGradGradGradGradGradGradGradGradGradGradGradGradGradGrad

                          Input orientation:                          
 ---------------------------------------------------------------------
 Center     Atomic      Atomic             Coordinates (Angstroms)
 Number     Number       Type             X           Y           Z
 ---------------------------------------------------------------------
      1         14           0       -1.832217   -0.024125   -0.072497
      2          8           0       -2.710750    1.348122   -0.309148
      3          8           0       -2.883991   -1.292582   -0.145325
      4          8           0       -0.596557   -0.272598   -1.110740
      5         40           0        1.373449   -0.103676   -0.842174
      6          1           0       -3.493622    1.253163   -0.861453
      7          1           0       -2.500803   -2.115048   -0.469396
      8          8           0       -1.097479    0.147702    1.414494
      9          1           0       -1.331248    0.953516    1.886549
     10          8           0        2.033882   -1.499549    0.379231
     11          1           0        2.120506   -1.575311    1.335259
     12          8           0        1.841284    1.695419   -0.187136
     13          1           0        2.406298    2.366815   -0.585089
     14          8           0        2.248126   -0.364413   -2.570648
     15          1           0        2.867323   -0.951986   -3.011739
 ---------------------------------------------------------------------
                    Distance matrix (angstroms):
                    1          2          3          4          5
     1  Si   0.000000
     2  O    1.646476   0.000000
     3  O    1.649399   2.651447   0.000000
     4  O    1.632955   2.781923   2.684167   0.000000
     5  Zr   3.297730   4.367209   4.474918   1.995391   0.000000
     6  H    2.239237   0.962781   2.713910   3.283760   5.052699
     7  H    2.230806   3.473227   0.963486   2.726188   4.381142
     8  O    1.667486   2.648508   2.774722   2.608521   3.355774
     9  H    2.246022   2.622942   3.403598   3.320672   3.984842
    10  O    4.162650   5.576255   4.950098   3.262610   1.968873
    11  H    4.473474   5.881460   5.226572   3.881031   2.732218
    12  O    4.057657   4.566893   5.590896   3.266374   1.970960
    13  H    4.893297   5.224755   6.447616   4.032363   2.690018
    14  O    4.796431   5.712933   5.751723   3.198747   1.954653
    15  H    5.620119   6.611308   6.435056   4.009218   2.767364
                    6          7          8          9         10
     6  H    0.000000
     7  H    3.533305   0.000000
     8  O    3.484750   3.261656   0.000000
     9  H    3.509582   4.041587   0.962715   0.000000
    10  O    6.298414   4.654285   3.686546   4.428728   0.000000
    11  H    6.659147   4.990449   3.651092   4.314336   0.962929
    12  O    5.395509   5.783861   3.687407   3.862065   3.250490
    13  H    6.010463   6.646813   4.604264   4.698474   4.002172
    14  O    6.205286   5.480174   5.228450   5.866469   3.168000
    15  H    7.067392   6.052519   6.043219   6.726972   3.534562
                   11         12         13         14         15
    11  H    0.000000
    12  O    3.618470   0.000000
    13  H    4.394289   0.963526   0.000000
    14  O    4.091292   3.176407   3.380395   0.000000
    15  H    4.454510   4.004983   4.137102   0.960837   0.000000
 Stoichiometry    H6O7SiZr
 Framework group  C1[X(H6O7SiZr)]
 Deg. of freedom    39
 Full point group                 C1      NOp   1
 Largest Abelian subgroup         C1      NOp   1
 Largest concise Abelian subgroup C1      NOp   1
                         Standard orientation:                         
 ---------------------------------------------------------------------
 Center     Atomic      Atomic             Coordinates (Angstroms)
 Number     Number       Type             X           Y           Z
 ---------------------------------------------------------------------
      1         14           0       -2.045719   -0.049037   -0.078387
      2          8           0       -2.884476    1.204000   -0.739650
      3          8           0       -3.006039   -1.385836   -0.184546
      4          8           0       -0.586910   -0.364529   -0.740871
      5         40           0        1.251706   -0.015425   -0.048627
      6          1           0       -3.505672    0.969470   -1.436828
      7          1           0       -2.528784   -2.218634   -0.268098
      8          8           0       -1.701404    0.401216    1.489806
      9          1           0       -2.069332    1.251036    1.752970
     10          8           0        1.639917   -1.156300    1.508344
     11          1           0        1.493446   -1.078055    2.456846
     12          8           0        1.486826    1.891760    0.389607
     13          1           0        2.109521    2.532949    0.029733
     14          8           0        2.529165   -0.474827   -1.454940
     15          1           0        3.256021   -1.077141   -1.634118
 ---------------------------------------------------------------------
 Rotational constants (GHZ):           1.6966318           0.5328411           0.5236728
 Basis read from rwf:  (5D, 7F)
 Pseudo-potential data read from rwf file.
 There are   178 symmetry adapted cartesian basis functions of A   symmetry.
 There are   168 symmetry adapted basis functions of A   symmetry.
   168 basis functions,   339 primitive gaussians,   178 cartesian basis functions
    44 alpha electrons       44 beta electrons
       nuclear repulsion energy       645.1209084230 Hartrees.
 NAtoms=   15 NActive=   15 NUniq=   15 SFac= 1.00D+00 NAtFMM=   60 NAOKFM=F Big=F
 Integral buffers will be    131072 words long.
 Raffenetti 2 integral format.
 Two-electron integral symmetry is turned on.
 One-electron integrals computed using PRISM.
   1 Symmetry operations used in ECPInt.
 ECPInt:  NShTT=    1770 NPrTT=   10201 LenC2=    1646 LenP2D=    6611.
 LDataN:  DoStor=T MaxTD1= 5 Len=  102
 NBasis=   168 RedAO= T EigKep=  1.22D-02  NBF=   168
 NBsUse=   168 1.00D-06 EigRej= -1.00D+00 NBFU=   168
 Defaulting to unpruned grid for atomic number  40.
 Initial guess from the checkpoint file:  "/localscratch/sarashs.33453159.0/Gau-19851.chk"
 B after Tr=    -0.000000    0.000000   -0.000000
         Rot=    0.999342    0.035702    0.006324   -0.000282 Ang=   4.16 deg.
 ExpMin= 2.43D-02 ExpMax= 1.61D+04 ExpMxC= 2.43D+03 IAcc=3 IRadAn=         5 AccDes= 0.00D+00
 Harris functional with IExCor=  402 and IRadAn=       5 diagonalized for initial guess.
 HarFok:  IExCor=  402 AccDes= 0.00D+00 IRadAn=         5 IDoV= 1 UseB2=F ITyADJ=14
 ICtDFT=  3500011 ScaDFX=  1.000000  1.000000  1.000000  1.000000
 Defaulting to unpruned grid for atomic number  40.
 FoFCou: FMM=F IPFlag=           0 FMFlag=      100000 FMFlg1=           0
         NFxFlg=           0 DoJE=T BraDBF=F KetDBF=T FulRan=T
         wScrn=  0.000000 ICntrl=       500 IOpCl=  0 I1Cent=   200000004 NGrid=           0
         NMat0=    1 NMatS0=      1 NMatT0=    0 NMatD0=    1 NMtDS0=    0 NMtDT0=    0
 Petite list used in FoFCou.
 Requested convergence on RMS density matrix=1.00D-08 within 128 cycles.
 Requested convergence on MAX density matrix=1.00D-06.
 Requested convergence on             energy=1.00D-06.
 No special actions if energy rises.
 Defaulting to unpruned grid for atomic number  40.
 Defaulting to unpruned grid for atomic number  40.
 Defaulting to unpruned grid for atomic number  40.
 Defaulting to unpruned grid for atomic number  40.
 Defaulting to unpruned grid for atomic number  40.
 Defaulting to unpruned grid for atomic number  40.
 Defaulting to unpruned grid for atomic number  40.
 Defaulting to unpruned grid for atomic number  40.
 Defaulting to unpruned grid for atomic number  40.
 Defaulting to unpruned grid for atomic number  40.
 Defaulting to unpruned grid for atomic number  40.
 Defaulting to unpruned grid for atomic number  40.
 Defaulting to unpruned grid for atomic number  40.
 Defaulting to unpruned grid for atomic number  40.
 Defaulting to unpruned grid for atomic number  40.
 Defaulting to unpruned grid for atomic number  40.
 SCF Done:  E(RB3LYP) =  -866.686541220     A.U. after   11 cycles
            NFock= 11  Conv=0.42D-08     -V/T= 2.0445
   1 Symmetry operations used in ECPInt.
 ECPInt:  NShTT=    1770 NPrTT=   10201 LenC2=    1646 LenP2D=    6611.
 LDataN:  DoStor=T MaxTD1= 6 Len=  172
 Calling FoFJK, ICntrl=      2127 FMM=F ISym2X=0 I1Cent= 0 IOpClX= 0 NMat=1 NMatS=1 NMatT=0.
 Defaulting to unpruned grid for atomic number  40.
 Defaulting to unpruned grid for atomic number  40.
 Defaulting to unpruned grid for atomic number  40.
 Defaulting to unpruned grid for atomic number  40.
 Defaulting to unpruned grid for atomic number  40.
 Defaulting to unpruned grid for atomic number  40.
 Defaulting to unpruned grid for atomic number  40.
 Defaulting to unpruned grid for atomic number  40.
 Defaulting to unpruned grid for atomic number  40.
 Defaulting to unpruned grid for atomic number  40.
 Defaulting to unpruned grid for atomic number  40.
 Defaulting to unpruned grid for atomic number  40.
 Defaulting to unpruned grid for atomic number  40.
 Defaulting to unpruned grid for atomic number  40.
 Defaulting to unpruned grid for atomic number  40.
 Defaulting to unpruned grid for atomic number  40.
 ***** Axes restored to original set *****
 -------------------------------------------------------------------
 Center     Atomic                   Forces (Hartrees/Bohr)
 Number     Number              X              Y              Z
 -------------------------------------------------------------------
      1       14           0.000459351    0.000163679    0.005758742
      2        8           0.000299326    0.001122610    0.000052237
      3        8          -0.000616826   -0.000885033    0.000086988
      4        8          -0.001885175   -0.000633958   -0.003979963
      5       40           0.004809044   -0.001632915    0.002284881
      6        1           0.000263062   -0.000345131   -0.000258270
      7        1           0.000031552    0.000261846   -0.000008566
      8        8          -0.000254517   -0.000063277   -0.003479972
      9        1          -0.000941184    0.000300874    0.000889982
     10        8          -0.001615950    0.002564074   -0.000242390
     11        1           0.000197646   -0.000391827   -0.000561235
     12        8          -0.000072714   -0.001333705   -0.001173788
     13        1          -0.000448242    0.000811266    0.001132901
     14        8          -0.000394803    0.000278547   -0.000776638
     15        1           0.000169429   -0.000217050    0.000275092
 -------------------------------------------------------------------
 Cartesian Forces:  Max     0.005758742 RMS     0.001612805

 GradGradGradGradGradGradGradGradGradGradGradGradGradGradGradGradGradGrad
 Berny optimization.
 Using GEDIIS/GDIIS optimizer.
 FormGI is forming the generalized inverse of G from B-inverse, IUseBI=4.
 Internal  Forces:  Max     0.004508995 RMS     0.001109164
 Search for a local minimum.
 Step number   3 out of a maximum of   67
 All quantities printed in internal units (Hartrees-Bohrs-Radians)
 Mixed Optimization -- En-DIIS/RFO-DIIS
 Update second derivatives using D2CorX and points    1    2    3
 DE= -1.20D-03 DEPred=-9.35D-04 R= 1.29D+00
 TightC=F SS=  1.41D+00  RLast= 1.91D-01 DXNew= 8.4853D-01 5.7379D-01
 Trust test= 1.29D+00 RLast= 1.91D-01 DXMaxT set to 5.74D-01
 ITU=  1  1  0
 Use linear search instead of GDIIS.
     Eigenvalues ---    0.00229   0.00230   0.00230   0.00251   0.02551
     Eigenvalues ---    0.03733   0.03767   0.03932   0.04979   0.10534
     Eigenvalues ---    0.10639   0.11180   0.12249   0.12913   0.15170
     Eigenvalues ---    0.16000   0.16000   0.16000   0.16000   0.16193
     Eigenvalues ---    0.18640   0.19445   0.19858   0.20008   0.20056
     Eigenvalues ---    0.20333   0.21638   0.25308   0.36543   0.43220
     Eigenvalues ---    0.43828   0.46220   0.54434   0.54625   0.54680
     Eigenvalues ---    0.54846   0.54986   0.553471000.000001000.00000
     Eigenvalues --- 1000.000001000.000001000.000001000.000001000.00000
     Eigenvalues --- 1000.000001000.000001000.000001000.000001000.00000
     Eigenvalues --- 1000.000001000.000001000.000001000.000001000.00000
     Eigenvalues --- 1000.000001000.00000
 RFO step:  Lambda=-3.89975279D-04 EMin= 2.28509098D-03
 Quartic linear search produced a step of  0.44651.
 Iteration  1 RMS(Cart)=  0.09418195 RMS(Int)=  0.00213431
 Iteration  2 RMS(Cart)=  0.00333462 RMS(Int)=  0.00031782
 Iteration  3 RMS(Cart)=  0.00000525 RMS(Int)=  0.00031780
 Iteration  4 RMS(Cart)=  0.00000000 RMS(Int)=  0.00031780
 Iteration  1 RMS(Cart)=  0.00000000 RMS(Int)=  0.00000000
 Variable       Old X    -DE/DX   Delta X   Delta X   Delta X     New X
                                 (Linear)    (Quad)   (Total)
    R1        3.11139   0.00038   0.00143   0.00146   0.00289   3.11428
    R2        3.11691   0.00085   0.00191   0.00240   0.00431   3.12122
    R3        3.08584   0.00259   0.00410   0.00623   0.01034   3.09618
    R4        3.15109  -0.00281  -0.01314  -0.00771  -0.02085   3.13024
    R5        1.81939  -0.00003  -0.00019   0.00001  -0.00017   1.81922
    R6        1.82073  -0.00021  -0.00019  -0.00056  -0.00075   1.81998
    R7        3.77074   0.00274   0.00728   0.00193   0.00921   3.77996
    R8        3.72063  -0.00251   0.00182  -0.01984  -0.01802   3.70261
    R9        3.72458  -0.00061   0.00327  -0.01093  -0.00766   3.71692
   R10        3.69376   0.00033   0.00810  -0.00430   0.00380   3.69756
   R11        1.81927   0.00092  -0.00055   0.00196   0.00141   1.82068
   R12        1.81967  -0.00051  -0.00028  -0.00097  -0.00125   1.81842
   R13        1.82080  -0.00017  -0.00013  -0.00040  -0.00053   1.82027
   R14        1.81572   0.00012   0.00009   0.00031   0.00040   1.81612
    A1        1.86958   0.00061   0.00041   0.00243   0.00257   1.87215
    A2        2.02550  -0.00084  -0.00933  -0.00724  -0.01678   2.00872
    A3        1.85189  -0.00030   0.00266  -0.00323  -0.00045   1.85144
    A4        1.91499  -0.00002  -0.00971  -0.00054  -0.01048   1.90451
    A5        1.98187   0.00003  -0.00013   0.00149   0.00143   1.98330
    A6        1.82269   0.00047   0.01684   0.00696   0.02390   1.84659
    A7        2.01986  -0.00076  -0.00199  -0.00578  -0.00778   2.01209
    A8        2.00174  -0.00027   0.00109  -0.00283  -0.00174   1.99999
    A9        2.27656  -0.00451  -0.00000   0.00000   0.00000   2.27656
   A10        1.93333  -0.00025  -0.00953  -0.00613  -0.01678   1.91655
   A11        1.93515  -0.00103  -0.01235  -0.01240  -0.02571   1.90944
   A12        1.88755   0.00022   0.01115   0.00515   0.01657   1.90411
   A13        1.94052  -0.00042  -0.01064  -0.00674  -0.01854   1.92198
   A14        1.87958   0.00065   0.01266   0.01045   0.02326   1.90284
   A15        1.88539   0.00093   0.01188   0.01123   0.02337   1.90876
   A16        2.00041   0.00006  -0.00744   0.00075  -0.00668   1.99373
   A17        2.34881   0.00090   0.00878   0.00739   0.01617   2.36498
   A18        2.26267   0.00264   0.01096   0.02134   0.03230   2.29496
   A19        2.45893  -0.00066  -0.00375  -0.00611  -0.00986   2.44907
    D1       -0.51920  -0.00005   0.00540  -0.00355   0.00182  -0.51739
    D2        1.62630  -0.00016  -0.01378  -0.00730  -0.02100   1.60530
    D3       -2.64169  -0.00025   0.00391  -0.00484  -0.00098  -2.64267
    D4        2.61886  -0.00026  -0.00623  -0.00353  -0.00976   2.60911
    D5        0.40632   0.00037   0.01186   0.00420   0.01601   0.42233
    D6       -1.62575  -0.00022  -0.00278  -0.00509  -0.00783  -1.63358
    D7        1.85346  -0.00006   0.00980   0.00658   0.01607   1.86953
    D8       -2.30821   0.00014  -0.00479   0.00415  -0.00038  -2.30859
    D9       -0.17813   0.00044  -0.00006   0.00971   0.00969  -0.16844
   D10        0.05250   0.00101   0.01582   0.02498   0.04068   0.09318
   D11       -1.99639   0.00044   0.01369   0.02325   0.03703  -1.95936
   D12        2.20129   0.00014   0.01478   0.01860   0.03341   2.23470
   D13        1.19263  -0.00060  -0.04118   0.10550   0.06483   1.25745
   D14       -0.97050   0.00086  -0.01019   0.12741   0.11667  -0.85383
   D15       -3.03458   0.00018  -0.02449   0.11777   0.09332  -2.94126
   D16       -1.52103   0.00075   0.00090   0.02020   0.02067  -1.50036
   D17        0.63902  -0.00106  -0.03110  -0.00502  -0.03567   0.60334
   D18        2.70132   0.00023  -0.01488   0.01115  -0.00375   2.69757
   D19       -2.08679  -0.00048  -0.00827   0.01076   0.00310  -2.08369
   D20        2.03739   0.00088   0.02228   0.03243   0.05413   2.09152
   D21       -0.02140  -0.00024   0.00560   0.01672   0.02228   0.00088
   D22       -2.05867  -0.00029  -0.00541  -0.01367  -0.01911  -2.07778
   D23        0.03146  -0.00010  -0.00395  -0.01225  -0.01628   0.01518
   D24        2.12894   0.00029  -0.00335  -0.00813  -0.01139   2.11755
         Item               Value     Threshold  Converged?
 Maximum Force            0.002812     0.000450     NO 
 RMS     Force            0.000943     0.000300     NO 
 Maximum Displacement     0.253858     0.001800     NO 
 RMS     Displacement     0.094657     0.001200     NO 
 Predicted change in Energy=-3.296089D-04
 GradGradGradGradGradGradGradGradGradGradGradGradGradGradGradGradGradGrad

                          Input orientation:                          
 ---------------------------------------------------------------------
 Center     Atomic      Atomic             Coordinates (Angstroms)
 Number     Number       Type             X           Y           Z
 ---------------------------------------------------------------------
      1         14           0       -1.816964   -0.009059   -0.056698
      2          8           0       -2.693592    1.346558   -0.387969
      3          8           0       -2.866152   -1.284685   -0.061504
      4          8           0       -0.592677   -0.317207   -1.101018
      5         40           0        1.386291   -0.142692   -0.868006
      6          1           0       -3.469566    1.209478   -0.941001
      7          1           0       -2.478099   -2.121747   -0.337708
      8          8           0       -1.100292    0.255792    1.413019
      9          1           0       -1.369196    1.075440    1.842115
     10          8           0        2.042128   -1.555588    0.320521
     11          1           0        2.129777   -1.666019    1.272406
     12          8           0        1.801833    1.624781   -0.111639
     13          1           0        2.329092    2.356111   -0.450753
     14          8           0        2.254581   -0.322386   -2.612230
     15          1           0        2.887039   -0.883327   -3.069345
 ---------------------------------------------------------------------
                    Distance matrix (angstroms):
                    1          2          3          4          5
     1  Si   0.000000
     2  O    1.648004   0.000000
     3  O    1.651678   2.657028   0.000000
     4  O    1.638426   2.773156   2.680540   0.000000
     5  Zr   3.307102   4.369640   4.476368   2.000266   0.000000
     6  H    2.235602   0.962690   2.712650   3.260807   5.041135
     7  H    2.231483   3.475357   0.963092   2.719159   4.373944
     8  O    1.656452   2.640441   2.768673   2.628000   3.397788
     9  H    2.232068   2.607836   3.381544   3.347310   4.052322
    10  O    4.174523   5.599237   4.930573   3.239840   1.959335
    11  H    4.482053   5.924302   5.184982   3.855410   2.730322
    12  O    3.970913   4.512495   5.500690   3.237880   1.966908
    13  H    4.789477   5.123523   6.355901   4.013254   2.703144
    14  O    4.817302   5.676013   5.801218   3.223455   1.956664
    15  H    5.654028   6.580699   6.504414   4.037725   2.765263
                    6          7          8          9         10
     6  H    0.000000
     7  H    3.527609   0.000000
     8  O    3.473382   3.258234   0.000000
     9  H    3.489306   4.025332   0.963460   0.000000
    10  O    6.294108   4.602853   3.788067   4.568882   0.000000
    11  H    6.672353   4.902313   3.761180   4.481403   0.962269
    12  O    5.352380   5.692574   3.552611   3.764884   3.218579
    13  H    5.931235   6.570622   4.432342   4.535934   3.997324
    14  O    6.156742   5.550622   5.271820   5.909896   3.188566
    15  H    7.022543   6.146563   6.106389   6.787838   3.557668
                   11         12         13         14         15
    11  H    0.000000
    12  O    3.585036   0.000000
    13  H    4.380243   0.963247   0.000000
    14  O    4.112337   3.201468   3.442656   0.000000
    15  H    4.476254   4.026947   4.202652   0.961047   0.000000
 Stoichiometry    H6O7SiZr
 Framework group  C1[X(H6O7SiZr)]
 Deg. of freedom    39
 Full point group                 C1      NOp   1
 Largest Abelian subgroup         C1      NOp   1
 Largest concise Abelian subgroup C1      NOp   1
                         Standard orientation:                         
 ---------------------------------------------------------------------
 Center     Atomic      Atomic             Coordinates (Angstroms)
 Number     Number       Type             X           Y           Z
 ---------------------------------------------------------------------
      1         14           0       -2.042859   -0.055809   -0.073738
      2          8           0       -2.872648    1.145554   -0.837998
      3          8           0       -2.992119   -1.406970   -0.109889
      4          8           0       -0.579984   -0.410203   -0.720917
      5         40           0        1.263981   -0.021352   -0.050355
[...]
 ! R10   R(5,14)                 1.9593         -DE/DX =    0.0                 !
 ! R11   R(8,9)                  0.9632         -DE/DX =    0.0                 !
 ! R12   R(10,11)                0.9619         -DE/DX =    0.0                 !
 ! R13   R(12,13)                0.9608         -DE/DX =    0.0                 !
 ! R14   R(14,15)                0.9615         -DE/DX =    0.0                 !
 ! A1    A(2,1,3)              106.4665         -DE/DX =    0.0                 !
 ! A2    A(2,1,4)              116.1103         -DE/DX =    0.0                 !
 ! A3    A(2,1,8)              106.1217         -DE/DX =    0.0                 !
 ! A4    A(3,1,4)              109.6505         -DE/DX =    0.0                 !
 ! A5    A(3,1,8)              114.5379         -DE/DX =    0.0                 !
 ! A6    A(4,1,8)              104.1896         -DE/DX =    0.0                 !
 ! A7    A(1,2,6)              114.8969         -DE/DX =    0.0                 !
 ! A8    A(1,3,7)              114.0844         -DE/DX =    0.0                 !
 ! A9    A(1,4,5)              130.4375         -DE/DX =   -0.0004              !
 ! A10   A(4,5,10)             110.7508         -DE/DX =    0.0                 !
 ! A11   A(4,5,12)             109.9306         -DE/DX =    0.0                 !
 ! A12   A(4,5,14)             107.4228         -DE/DX =    0.0                 !
 ! A13   A(10,5,12)            110.2816         -DE/DX =    0.0                 !
 ! A14   A(10,5,14)            108.3408         -DE/DX =    0.0                 !
 ! A15   A(12,5,14)            110.0567         -DE/DX =    0.0                 !
 ! A16   A(1,8,9)              115.4723         -DE/DX =    0.0                 !
 ! A17   A(5,10,11)            136.5755         -DE/DX =    0.0                 !
 ! A18   A(5,12,13)            141.2578         -DE/DX =    0.0                 !
 ! A19   A(5,14,15)            138.1484         -DE/DX =    0.0                 !
 ! D1    D(3,1,2,6)            -34.492          -DE/DX =    0.0                 !
 ! D2    D(4,1,2,6)             87.878          -DE/DX =    0.0                 !
 ! D3    D(8,1,2,6)           -156.9187         -DE/DX =    0.0                 !
 ! D4    D(2,1,3,7)            151.5836         -DE/DX =    0.0                 !
 ! D5    D(4,1,3,7)             25.2243         -DE/DX =    0.0                 !
 ! D6    D(8,1,3,7)            -91.4647         -DE/DX =    0.0                 !
 ! D7    D(2,1,4,5)            103.4655         -DE/DX =    0.0                 !
 ! D8    D(3,1,4,5)           -135.8573         -DE/DX =    0.0                 !
 ! D9    D(8,1,4,5)            -12.823          -DE/DX =    0.0                 !
 ! D10   D(2,1,8,9)             26.4774         -DE/DX =    0.0                 !
 ! D11   D(3,1,8,9)            -90.6717         -DE/DX =    0.0                 !
 ! D12   D(4,1,8,9)            149.5442         -DE/DX =    0.0                 !
 ! D13   D(1,4,5,10)            65.2225         -DE/DX =    0.0                 !
 ! D14   D(1,4,5,12)           -56.8964         -DE/DX =    0.0                 !
 ! D15   D(1,4,5,14)          -176.6407         -DE/DX =    0.0                 !
 ! D16   D(4,5,10,11)          -83.0998         -DE/DX =    0.0                 !
 ! D17   D(12,5,10,11)          38.8136         -DE/DX =    0.0                 !
 ! D18   D(14,5,10,11)         159.3239         -DE/DX =    0.0                 !
 ! D19   D(4,5,12,13)         -110.1925         -DE/DX =    0.0                 !
 ! D20   D(10,5,12,13)         127.4105         -DE/DX =    0.0                 !
 ! D21   D(14,5,12,13)           7.9354         -DE/DX =    0.0                 !
 ! D22   D(4,5,14,15)         -126.4738         -DE/DX =    0.0                 !
 ! D23   D(10,5,14,15)          -6.7878         -DE/DX =    0.0                 !
 ! D24   D(12,5,14,15)         113.8623         -DE/DX =    0.0                 !
 --------------------------------------------------------------------------------
 GradGradGradGradGradGradGradGradGradGradGradGradGradGradGradGradGradGrad

                          Input orientation:                          
 ---------------------------------------------------------------------
 Center     Atomic      Atomic             Coordinates (Angstroms)
 Number     Number       Type             X           Y           Z
 ---------------------------------------------------------------------
      1         14           0       -1.804514   -0.014575   -0.064358
      2          8           0       -2.642287    1.392007   -0.258221
      3          8           0       -2.910638   -1.238375   -0.177848
      4          8           0       -0.583782   -0.276800   -1.120879
      5         40           0        1.399548   -0.107480   -0.884154
      6          1           0       -3.383732    1.341222   -0.870994
      7          1           0       -2.547148   -2.067637   -0.507611
      8          8           0       -1.050140    0.097855    1.408933
      9          1           0       -1.480215    0.671939    2.051824
     10          8           0        2.058979   -1.421859    0.411787
     11          1           0        2.125302   -1.486385    1.369247
     12          8           0        1.849649    1.706677   -0.299924
     13          1           0        2.273555    2.510700   -0.611271
     14          8           0        2.231342   -0.480693   -2.618414
     15          1           0        2.908281   -1.061145   -2.977927
 ---------------------------------------------------------------------
                    Distance matrix (angstroms):
                    1          2          3          4          5
     1  Si   0.000000
     2  O    1.648611   0.000000
     3  O    1.653504   2.645256   0.000000
     4  O    1.635600   2.786851   2.688530   0.000000
     5  Zr   3.308582   4.356224   4.511707   2.004572   0.000000
     6  H    2.232213   0.963229   2.712672   3.243480   4.997868
     7  H    2.227789   3.469926   0.963611   2.727270   4.422716
     8  O    1.659008   2.643702   2.786546   2.599578   3.361753
     9  H    2.248266   2.684254   3.266014   3.430706   4.185749
    10  O    4.139293   5.519842   5.007837   3.262578   1.960078
    11  H    4.434513   5.802042   5.274060   3.873365   2.739692
    12  O    4.046123   4.503137   5.598979   3.244955   1.958336
    13  H    4.827710   5.053872   6.412432   4.024206   2.773666
    14  O    4.798813   5.729727   5.741986   3.195169   1.959292
    15  H    5.638673   6.650080   6.460006   4.032162   2.751298
                    6          7          8          9         10
     6  H    0.000000
     7  H    3.528773   0.000000
     8  O    3.491372   3.256306   0.000000
     9  H    3.551645   3.897990   0.963247   0.000000
    10  O    6.237247   4.741174   3.601452   4.427144   0.000000
    11  H    6.585096   5.068751   3.548919   4.257231   0.961921
    12  O    5.277116   5.798310   3.730586   4.205876   3.215290
    13  H    5.782736   6.649143   4.577116   4.956199   4.069117
    14  O    6.156452   5.459656   5.227080   6.075799   3.177675
    15  H    7.056909   6.072660   6.021372   6.896439   3.513060
                   11         12         13         14         15
    11  H    0.000000
    12  O    3.613552   0.000000
    13  H    4.463308   0.960774   0.000000
    14  O    4.113891   3.210245   3.602616   0.000000
    15  H    4.437545   3.994151   4.331515   0.961468   0.000000
 Stoichiometry    H6O7SiZr
 Framework group  C1[X(H6O7SiZr)]
 Deg. of freedom    39
 Full point group                 C1      NOp   1
 Largest Abelian subgroup         C1      NOp   1
 Largest concise Abelian subgroup C1      NOp   1
                         Standard orientation:                         
 ---------------------------------------------------------------------
 Center     Atomic      Atomic             Coordinates (Angstroms)
 Number     Number       Type             X           Y           Z
 ---------------------------------------------------------------------
      1         14           0       -2.043449   -0.060373   -0.070769
      2          8           0       -2.857845    1.164893   -0.814678
      3          8           0       -3.034202   -1.383036   -0.125958
      4          8           0       -0.582775   -0.440611   -0.700876
      5         40           0        1.264766   -0.016114   -0.049183
      6          1           0       -3.414219    0.892804   -1.552395
      7          1           0       -2.565830   -2.225119   -0.134288
      8          8           0       -1.698270    0.478513    1.459839
      9          1           0       -2.301411    1.142313    1.811172
     10          8           0        1.619971   -0.906976    1.660232
     11          1           0        1.440368   -0.733287    2.589138
     12          8           0        1.477828    1.921577    0.138005
     13          1           0        1.935583    2.666990   -0.259370
     14          8           0        2.528511   -0.705788   -1.378139
     15          1           0        3.297410   -1.282477   -1.403555
 ---------------------------------------------------------------------
 Rotational constants (GHZ):           1.6939273           0.5311696           0.5238123

 **********************************************************************

            Population analysis using the SCF Density.

 **********************************************************************

 Orbital symmetries:
       Occupied  (A) (A) (A) (A) (A) (A) (A) (A) (A) (A) (A) (A)
                 (A) (A) (A) (A) (A) (A) (A) (A) (A) (A) (A) (A)
                 (A) (A) (A) (A) (A) (A) (A) (A) (A) (A) (A) (A)
                 (A) (A) (A) (A) (A) (A) (A) (A)
       Virtual   (A) (A) (A) (A) (A) (A) (A) (A) (A) (A) (A) (A)
                 (A) (A) (A) (A) (A) (A) (A) (A) (A) (A) (A) (A)
                 (A) (A) (A) (A) (A) (A) (A) (A) (A) (A) (A) (A)
                 (A) (A) (A) (A) (A) (A) (A) (A) (A) (A) (A) (A)
                 (A) (A) (A) (A) (A) (A) (A) (A) (A) (A) (A) (A)
                 (A) (A) (A) (A) (A) (A) (A) (A) (A) (A) (A) (A)
                 (A) (A) (A) (A) (A) (A) (A) (A) (A) (A) (A) (A)
                 (A) (A) (A) (A) (A) (A) (A) (A) (A) (A) (A) (A)
                 (A) (A) (A) (A) (A) (A) (A) (A) (A) (A) (A) (A)
                 (A) (A) (A) (A) (A) (A) (A) (A) (A) (A) (A) (A)
                 (A) (A) (A) (A)
 The electronic state is 1-A.
 Alpha  occ. eigenvalues --  -66.18688 -19.14217 -19.14115 -19.14057 -19.13850
 Alpha  occ. eigenvalues --  -19.13637 -19.13629 -19.12400  -5.32982  -3.68935
 Alpha  occ. eigenvalues --   -3.68911  -3.68897  -2.05919  -1.26681  -1.26578
 Alpha  occ. eigenvalues --   -1.26212  -1.02030  -0.98941  -0.98626  -0.95680
 Alpha  occ. eigenvalues --   -0.94677  -0.94499  -0.92902  -0.56481  -0.51347
 Alpha  occ. eigenvalues --   -0.50958  -0.48176  -0.48015  -0.47612  -0.43856
 Alpha  occ. eigenvalues --   -0.38529  -0.36935  -0.36590  -0.35013  -0.34724
 Alpha  occ. eigenvalues --   -0.33708  -0.33406  -0.32963  -0.32143  -0.31483
 Alpha  occ. eigenvalues --   -0.31244  -0.30706  -0.29889  -0.29623
 Alpha virt. eigenvalues --   -0.01396  -0.00681  -0.00223   0.00790   0.01536
 Alpha virt. eigenvalues --    0.02006   0.02555   0.02803   0.03249   0.09048
 Alpha virt. eigenvalues --    0.09979   0.10216   0.15288   0.15870   0.15960
 Alpha virt. eigenvalues --    0.17206   0.18412   0.19725   0.20084   0.23287
 Alpha virt. eigenvalues --    0.23927   0.24400   0.24996   0.25895   0.27097
 Alpha virt. eigenvalues --    0.29741   0.30063   0.34318   0.38203   0.40039
 Alpha virt. eigenvalues --    0.42267   0.57428   0.64695   0.71544   0.79665
 Alpha virt. eigenvalues --    0.80820   0.82833   0.85807   0.86749   0.87619
 Alpha virt. eigenvalues --    0.91254   0.93117   0.93758   0.95334   0.96304
 Alpha virt. eigenvalues --    0.97917   0.98702   0.99547   1.00410   1.03637
 Alpha virt. eigenvalues --    1.05585   1.07369   1.08204   1.09558   1.09981
 Alpha virt. eigenvalues --    1.15141   1.16801   1.19098   1.20071   1.21251
 Alpha virt. eigenvalues --    1.23453   1.25226   1.29596   1.36931   1.46580
 Alpha virt. eigenvalues --    1.47332   1.49466   1.53642   1.53930   1.56434
 Alpha virt. eigenvalues --    1.58858   1.58902   1.60459   1.61256   1.63077
 Alpha virt. eigenvalues --    1.63751   1.64189   1.66595   1.67592   1.70815
 Alpha virt. eigenvalues --    1.73544   1.74326   1.79146   1.80159   1.81211
 Alpha virt. eigenvalues --    1.81692   1.83452   1.84535   1.86196   1.88646
 Alpha virt. eigenvalues --    1.90574   1.92310   2.03905   2.06633   2.14741
 Alpha virt. eigenvalues --    2.35705   2.36090   2.37177   2.37939   2.38517
 Alpha virt. eigenvalues --    2.38565   2.44285   2.58754   2.61466   2.62106
 Alpha virt. eigenvalues --    2.63306   2.64098   2.64487   2.64721   2.64805
 Alpha virt. eigenvalues --    2.65157   2.65301   2.65898   2.67010   2.74097
 Alpha virt. eigenvalues --    2.76907   2.82021   3.41132   3.42224   3.43335
 Alpha virt. eigenvalues --    3.43939   3.44043   3.47293   4.02260
          Condensed to atoms (all electrons):
               1          2          3          4          5          6
     1  Si  11.503839   0.388570   0.390247   0.336163  -0.051085  -0.021620
     2  O    0.388570   7.961905  -0.021244  -0.011655   0.001654   0.302960
     3  O    0.390247  -0.021244   7.962922  -0.019167  -0.001415  -0.000670
     4  O    0.336163  -0.011655  -0.019167   8.291982   0.180993  -0.000353
     5  Zr  -0.051085   0.001654  -0.001415   0.180993   9.741684  -0.000958
     6  H   -0.021620   0.302960  -0.000670  -0.000353  -0.000958   0.387473
     7  H   -0.021838   0.000452   0.301020   0.001964  -0.001549  -0.000061
     8  O    0.321177  -0.019574  -0.014622  -0.024154   0.050935   0.000593
     9  H   -0.018354   0.000271  -0.000667   0.000985  -0.003500   0.000008
    10  O   -0.004134   0.000000   0.000001   0.000576   0.222120  -0.000000
    11  H    0.000106  -0.000000   0.000001  -0.000108  -0.016669   0.000000
    12  O   -0.003924   0.000004   0.000000   0.000503   0.218716  -0.000000
    13  H    0.000106  -0.000001  -0.000000  -0.000035  -0.015311  -0.000000
    14  O    0.000142   0.000000   0.000000   0.000747   0.213407   0.000000
    15  H   -0.000029   0.000000   0.000000  -0.000034  -0.015346  -0.000000
               7          8          9         10         11         12
     1  Si  -0.021838   0.321177  -0.018354  -0.004134   0.000106  -0.003924
     2  O    0.000452  -0.019574   0.000271   0.000000  -0.000000   0.000004
     3  O    0.301020  -0.014622  -0.000667   0.000001   0.000001   0.000000
     4  O    0.001964  -0.024154   0.000985   0.000576  -0.000108   0.000503
     5  Zr  -0.001549   0.050935  -0.003500   0.222120  -0.016669   0.218716
     6  H   -0.000061   0.000593   0.000008  -0.000000   0.000000  -0.000000
     7  H    0.390804  -0.000557   0.000072  -0.000005  -0.000001   0.000000
     8  O   -0.000557   8.003203   0.301998  -0.000565  -0.000156  -0.000399
     9  H    0.000072   0.301998   0.383922   0.000015   0.000002   0.000004
    10  O   -0.000005  -0.000565   0.000015   8.174566   0.297518   0.000804
    11  H   -0.000001  -0.000156   0.000002   0.297518   0.385316  -0.000430
    12  O    0.000000  -0.000399   0.000004   0.000804  -0.000430   8.176691
    13  H    0.000000   0.000004  -0.000001  -0.000052  -0.000001   0.297989
    14  O   -0.000000  -0.000000   0.000000   0.001012   0.000001   0.000907
    15  H    0.000000  -0.000000   0.000000  -0.000508  -0.000000  -0.000088
              13         14         15
     1  Si   0.000106   0.000142  -0.000029
     2  O   -0.000001   0.000000   0.000000
     3  O   -0.000000   0.000000   0.000000
     4  O   -0.000035   0.000747  -0.000034
     5  Zr  -0.015311   0.213407  -0.015346
     6  H   -0.000000   0.000000  -0.000000
     7  H    0.000000  -0.000000   0.000000
     8  O    0.000004  -0.000000  -0.000000
     9  H   -0.000001   0.000000   0.000000
    10  O   -0.000052   0.001012  -0.000508
    11  H   -0.000001   0.000001  -0.000000
    12  O    0.297989   0.000907  -0.000088
    13  H    0.387374  -0.000509  -0.000004
    14  O   -0.000509   8.180279   0.297263
    15  H   -0.000004   0.297263   0.386723
 Mulliken charges:
               1
     1  Si   1.180634
     2  O   -0.603343
     3  O   -0.596405
     4  O   -0.758409
     5  Zr   1.476324
     6  H    0.332627
     7  H    0.329698
     8  O   -0.617884
     9  H    0.335245
    10  O   -0.691348
    11  H    0.334422
    12  O   -0.690777
    13  H    0.330442
    14  O   -0.693248
    15  H    0.332023
 Sum of Mulliken charges =  -0.00000
 Mulliken charges with hydrogens summed into heavy atoms:
               1
     1  Si   1.180634
     2  O   -0.270716
     3  O   -0.266707
     4  O   -0.758409
     5  Zr   1.476324
     8  O   -0.282639
    10  O   -0.356927
    12  O   -0.360336
    14  O   -0.361225
 Electronic spatial extent (au):  <R**2>=           2068.1414
 Charge=              0.0000 electrons
 Dipole moment (field-independent basis, Debye):
    X=              1.1072    Y=              0.0405    Z=              0.3216  Tot=              1.1536
 Quadrupole moment (field-independent basis, Debye-Ang):
   XX=            -66.7546   YY=            -67.8595   ZZ=            -69.2704
   XY=              0.0072   XZ=              0.2653   YZ=              0.6915
 Traceless Quadrupole moment (field-independent basis, Debye-Ang):
   XX=              1.2069   YY=              0.1020   ZZ=             -1.3089
   XY=              0.0072   XZ=              0.2653   YZ=              0.6915
 Octapole moment (field-independent basis, Debye-Ang**2):
  XXX=             57.0673  YYY=             -2.6741  ZZZ=             19.4278  XYY=             19.6508
  XXY=              7.8824  XXZ=            -17.7776  XZZ=             -2.2608  YZZ=              6.1220
  YYZ=             -6.0295  XYZ=             -2.1667
 Hexadecapole moment (field-independent basis, Debye-Ang**3):
 XXXX=          -1628.4284 YYYY=           -327.2834 ZZZZ=           -316.5981 XXXY=            -89.0038
 XXXZ=             -3.3408 YYYX=             68.3427 YYYZ=              2.0189 ZZZX=             40.7130
 ZZZY=             -7.4093 XXYY=           -306.5051 XXZZ=           -293.7306 YYZZ=           -127.2447
 XXYZ=             25.5074 YYXZ=            -36.4944 ZZXY=            -28.1663
 N-N= 6.451608007021D+02 E-N=-3.327073955123D+03  KE= 8.297840600636D+02
 1\1\GINC-GRA602\FOpt\RB3LYP\Gen\H6O7Si1Zr1\SARASHS\24-Jun-2020\0\\#n B
 3LYP/GEN PSEUDO=READ Opt(modredundant)\\Title\\0,1\Si,-1.8045143894,-0
 .0145751538,-0.0643581773\O,-2.6422868383,1.3920071909,-0.2582209174\O
 ,-2.9106383671,-1.2383746563,-0.1778479497\O,-0.5837819555,-0.27680025
 03,-1.1208790887\Zr,1.3995483895,-0.1074799427,-0.8841540341\H,-3.3837
 322132,1.3412218125,-0.870993799\H,-2.5471478127,-2.0676373673,-0.5076
 1079\O,-1.0501403228,0.0978553846,1.4089329542\H,-1.4802145272,0.67193
 85847,2.0518238504\O,2.0589793251,-1.4218593233,0.4117868219\H,2.12530
 17465,-1.4863849257,1.3692467673\O,1.8496487168,1.7066769225,-0.299923
 9498\H,2.2735551882,2.5107002544,-0.6112706035\O,2.2313417139,-0.48069
 31532,-2.6184141222\H,2.9082813462,-1.061145377,-2.977926962\\Version=
 ES64L-G16RevB.01\State=1-A\HF=-866.6873329\RMSD=4.082e-09\RMSF=4.139e-
 05\Dipole=0.4524575,-0.034339,0.0102842\Quadrupole=0.8992146,-0.244609
 ,-0.6546056,0.0922906,-0.1922316,0.6987078\PG=C01 [X(H6O7Si1Zr1)]\\@


 RESEARCH IS WHAT I AM DOING WHEN I DON'T KNOW WHAT I AM DOING.
     -- WERNER VON BRAUN
 Job cpu time:       0 days  0 hours 45 minutes  1.4 seconds.
 Elapsed time:       0 days  0 hours  2 minutes 55.6 seconds.
 File lengths (MBytes):  RWF=     23 Int=      0 D2E=      0 Chk=      3 Scr=      1
 Normal termination of Gaussian 16 at Wed Jun 24 13:55:50 2020.
