 Entering Gaussian System, Link 0=g16
 Initial command:
 /opt/software/gaussian/g16.b01/l1.exe "/localscratch/sarashs.33453167.0/Gau-16413.inp" -scrdir="/localscratch/sarashs.33453167.0/"
 Entering Link 1 = /opt/software/gaussian/g16.b01/l1.exe PID=     16414.
  
 Copyright (c) 1988-2017, Gaussian, Inc.  All Rights Reserved.
  
 This is part of the Gaussian(R) 16 program.  It is based on
 the Gaussian(R) 09 system (copyright 2009, Gaussian, Inc.),
 the Gaussian(R) 03 system (copyright 2003, Gaussian, Inc.),
 the Gaussian(R) 98 system (copyright 1998, Gaussian, Inc.),
 the Gaussian(R) 94 system (copyright 1995, Gaussian, Inc.),
 the Gaussian 92(TM) system (copyright 1992, Gaussian, Inc.),
 the Gaussian 90(TM) system (copyright 1990, Gaussian, Inc.),
 the Gaussian 88(TM) system (copyright 1988, Gaussian, Inc.),
 the Gaussian 86(TM) system (copyright 1986, Carnegie Mellon
 University), and the Gaussian 82(TM) system (copyright 1983,
 Carnegie Mellon University). Gaussian is a federally registered
 trademark of Gaussian, Inc.
  
 This software contains proprietary and confidential information,
 including trade secrets, belonging to Gaussian, Inc.
  
 This software is provided under written license and may be
 used, copied, transmitted, or stored only in accord with that
 written license.
  
 The following legend is applicable only to US Government
 contracts under FAR:
  
                    RESTRICTED RIGHTS LEGEND
  
 Use, reproduction and disclosure by the US Government is
 subject to restrictions as set forth in subparagraphs (a)
 and (c) of the Commercial Computer Software - Restricted
 Rights clause in FAR 52.227-19.
  
 Gaussian, Inc.
 340 Quinnipiac St., Bldg. 40, Wallingford CT 06492
  
  
 ---------------------------------------------------------------
 Warning -- This program may not be used in any manner that
 competes with the business of Gaussian, Inc. or will provide
 assistance to any competitor of Gaussian, Inc.  The licensee
 of this program is prohibited from giving any competitor of
 Gaussian, Inc. access to this program.  By using this program,
 the user acknowledges that Gaussian, Inc. is engaged in the
 business of creating and licensing software in the field of
 computational chemistry and represents and warrants to the
 licensee that it is not a competitor of Gaussian, Inc. and that
 it will not use this program in any manner prohibited above.
 ---------------------------------------------------------------
  

 Cite this work as:
 Gaussian 16, Revision B.01,
 M. J. Frisch, G. W. Trucks, H. B. Schlegel, G. E. Scuseria, 
 M. A. Robb, J. R. Cheeseman, G. Scalmani, V. Barone, 
 G. A. Petersson, H. Nakatsuji, X. Li, M. Caricato, A. V. Marenich, 
 J. Bloino, B. G. Janesko, R. Gomperts, B. Mennucci, H. P. Hratchian, 
 J. V. Ortiz, A. F. Izmaylov, J. L. Sonnenberg, D. Williams-Young, 
 F. Ding, F. Lipparini, F. Egidi, J. Goings, B. Peng, A. Petrone, 
 T. Henderson, D. Ranasinghe, V. G. Zakrzewski, J. Gao, N. Rega, 
 G. Zheng, W. Liang, M. Hada, M. Ehara, K. Toyota, R. Fukuda, 
 J. Hasegawa, M. Ishida, T. Nakajima, Y. Honda, O. Kitao, H. Nakai, 
 T. Vreven, K. Throssell, J. A. Montgomery, Jr., J. E. Peralta, 
 F. Ogliaro, M. J. Bearpark, J. J. Heyd, E. N. Brothers, K. N. Kudin, 
 V. N. Staroverov, T. A. Keith, R. Kobayashi, J. Normand, 
 K. Raghavachari, A. P. Rendell, J. C. Burant, S. S. Iyengar, 
 J. Tomasi, M. Cossi, J. M. Millam, M. Klene, C. Adamo, R. Cammi, 
 J. W. Ochterski, R. L. Martin, K. Morokuma, O. Farkas, 
 J. B. Foresman, and D. J. Fox, Gaussian, Inc., Wallingford CT, 2016.
 
 ******************************************
 Gaussian 16:  ES64L-G16RevB.01 20-Dec-2017
                24-Jun-2020 
 ******************************************
 %NProcShared=16
 Will use up to   16 processors via shared memory.
 ------------------------------------------
 #n B3LYP/GEN PSEUDO=READ Opt(modredundant)
 ------------------------------------------
 1/18=120,19=15,26=3,38=1/1,3;
 2/9=110,12=2,17=6,18=5,40=1/2;
 3/5=7,11=2,16=1,17=8,25=1,30=1,71=1,74=-5/1,2,3;
 4//1;
 5/5=2,38=5/2;
 6/7=2,8=2,9=2,10=2,28=1/1;
 7//1,2,3,16;
 1/18=20,19=15,26=3/3(2);
 2/9=110/2;
 99//99;
 2/9=110/2;
 3/5=7,6=1,11=2,16=1,17=8,25=1,30=1,71=1,74=-5,82=7/1,2,3;
 4/5=5,16=3,69=1/1;
 5/5=2,38=5/2;
 7//1,2,3,16;
 1/18=20,19=15,26=3/3(-5);
 2/9=110/2;
 6/7=2,8=2,9=2,10=2,19=2,28=1/1;
 99/9=1/99;
 -----
 Title
 -----
 Symbolic Z-matrix:
 Charge =  0 Multiplicity = 1
 Si                   -1.90698  -0.04093  -0.13187 
 O                    -2.77661   1.33183  -0.36828 
 O                    -2.96472  -1.30138  -0.09409 
 O                    -0.62539  -0.3216   -1.09659 
 Zr                    0.86735   0.01117   0.2695 
 H                    -3.57833   1.23701  -0.89318 
 H                    -2.59505  -2.1428   -0.38501 
 O                    -1.07346   0.19403   1.32035 
 H                    -1.20745   1.04108   1.76425 
 O                     1.0772   -1.46289   1.55741 
 H                     0.66248  -1.64607   2.40641 
 O                     0.80555   1.8117    1.09696 
 H                     1.46876   2.50806   1.03366 
 O                     2.52131  -0.00984  -0.7726 
 H                     3.3472   -0.49014  -0.87241 
 
 The following ModRedundant input section has been read:
 A       1       4       5 F                                                   
 

 GradGradGradGradGradGradGradGradGradGradGradGradGradGradGradGradGradGrad
 Berny optimization.
 Initialization pass.
                           ----------------------------
                           !    Initial Parameters    !
                           ! (Angstroms and Degrees)  !
 --------------------------                            --------------------------
 ! Name  Definition              Value          Derivative Info.                !
 --------------------------------------------------------------------------------
 ! R1    R(1,2)                  1.6421         estimate D2E/DX2                !
 ! R2    R(1,3)                  1.6459         estimate D2E/DX2                !
 ! R3    R(1,4)                  1.6285         estimate D2E/DX2                !
 ! R4    R(1,5)                  2.8037         estimate D2E/DX2                !
 ! R5    R(1,8)                  1.6908         estimate D2E/DX2                !
 ! R6    R(2,6)                  0.9629         estimate D2E/DX2                !
 ! R7    R(3,7)                  0.964          estimate D2E/DX2                !
 ! R8    R(4,5)                  2.0507         estimate D2E/DX2                !
 ! R9    R(5,8)                  2.2146         estimate D2E/DX2                !
 ! R10   R(5,10)                 1.9687         estimate D2E/DX2                !
 ! R11   R(5,12)                 1.9825         estimate D2E/DX2                !
 ! R12   R(5,14)                 1.955          estimate D2E/DX2                !
 ! R13   R(8,9)                  0.9657         estimate D2E/DX2                !
 ! R14   R(10,11)                0.9625         estimate D2E/DX2                !
 ! R15   R(12,13)                0.9637         estimate D2E/DX2                !
 ! R16   R(14,15)                0.9606         estimate D2E/DX2                !
 ! A1    A(2,1,3)              107.6477         estimate D2E/DX2                !
 ! A2    A(2,1,4)              118.3958         estimate D2E/DX2                !
 ! A3    A(2,1,5)              121.9447         estimate D2E/DX2                !
 ! A4    A(2,1,8)              105.5776         estimate D2E/DX2                !
 ! A5    A(3,1,4)              112.7909         estimate D2E/DX2                !
 ! A6    A(3,1,5)              130.3057         estimate D2E/DX2                !
 ! A7    A(3,1,8)              113.7977         estimate D2E/DX2                !
 ! A8    A(4,1,8)               98.3257         estimate D2E/DX2                !
 ! A9    A(1,2,6)              115.9167         estimate D2E/DX2                !
 ! A10   A(1,3,7)              114.5237         estimate D2E/DX2                !
 ! A11   A(1,4,5)               98.642          Frozen                          !
 ! A12   A(1,5,10)             100.6739         estimate D2E/DX2                !
 ! A13   A(1,5,12)              92.624          estimate D2E/DX2                !
 ! A14   A(1,5,14)             139.5213         estimate D2E/DX2                !
 ! A15   A(4,5,8)               72.0352         estimate D2E/DX2                !
 ! A16   A(4,5,10)             113.073          estimate D2E/DX2                !
 ! A17   A(4,5,12)             113.749          estimate D2E/DX2                !
 ! A18   A(4,5,14)             105.0107         estimate D2E/DX2                !
 ! A19   A(8,5,10)              81.0725         estimate D2E/DX2                !
 ! A20   A(8,5,12)              72.5209         estimate D2E/DX2                !
 ! A21   A(10,5,12)            114.2237         estimate D2E/DX2                !
 ! A22   A(10,5,14)            104.5067         estimate D2E/DX2                !
 ! A23   A(12,5,14)            104.9878         estimate D2E/DX2                !
 ! A24   A(1,8,9)              116.6352         estimate D2E/DX2                !
 ! A25   A(5,8,9)              114.3403         estimate D2E/DX2                !
 ! A26   A(5,10,11)            132.3499         estimate D2E/DX2                !
 ! A27   A(5,12,13)            127.3996         estimate D2E/DX2                !
 ! A28   A(5,14,15)            142.0119         estimate D2E/DX2                !
 ! A29   L(8,5,14,4,-1)        177.0459         estimate D2E/DX2                !
 ! A30   L(8,5,14,4,-2)        175.0518         estimate D2E/DX2                !
 ! D1    D(3,1,2,6)            -31.5445         estimate D2E/DX2                !
 ! D2    D(4,1,2,6)             97.8074         estimate D2E/DX2                !
 ! D3    D(5,1,2,6)            151.7737         estimate D2E/DX2                !
 ! D4    D(8,1,2,6)           -153.4334         estimate D2E/DX2                !
 ! D5    D(2,1,3,7)            151.7162         estimate D2E/DX2                !
 ! D6    D(4,1,3,7)             19.2636         estimate D2E/DX2                !
 ! D7    D(5,1,3,7)            -31.9765         estimate D2E/DX2                !
 ! D8    D(8,1,3,7)            -91.6497         estimate D2E/DX2                !
 ! D9    D(2,1,5,10)           144.4643         estimate D2E/DX2                !
 ! D10   D(2,1,5,12)            29.2123         estimate D2E/DX2                !
 ! D11   D(2,1,5,14)           -87.6916         estimate D2E/DX2                !
 ! D12   D(3,1,5,10)           -31.388          estimate D2E/DX2                !
 ! D13   D(3,1,5,12)          -146.64           estimate D2E/DX2                !
 ! D14   D(3,1,5,14)            96.456          estimate D2E/DX2                !
 ! D15   D(2,1,8,9)             -0.7356         estimate D2E/DX2                !
 ! D16   D(3,1,8,9)           -118.5698         estimate D2E/DX2                !
 ! D17   D(4,1,8,9)            121.931          estimate D2E/DX2                !
 ! D18   D(4,5,8,9)           -123.2096         estimate D2E/DX2                !
 ! D19   D(10,5,8,9)           118.8874         estimate D2E/DX2                !
 ! D20   D(12,5,8,9)            -0.1187         estimate D2E/DX2                !
 ! D21   D(9,8,14,15)          122.4658         estimate D2E/DX2                !
 ! D22   D(1,5,10,11)          -53.851          estimate D2E/DX2                !
 ! D23   D(4,5,10,11)          -88.2369         estimate D2E/DX2                !
 ! D24   D(8,5,10,11)          -22.2082         estimate D2E/DX2                !
 ! D25   D(12,5,10,11)          43.9588         estimate D2E/DX2                !
 ! D26   D(14,5,10,11)         158.1218         estimate D2E/DX2                !
 ! D27   D(1,5,12,13)         -145.9057         estimate D2E/DX2                !
 ! D28   D(4,5,12,13)         -116.9749         estimate D2E/DX2                !
 ! D29   D(8,5,12,13)         -177.5139         estimate D2E/DX2                !
 ! D30   D(10,5,12,13)         111.154          estimate D2E/DX2                !
 ! D31   D(14,5,12,13)          -2.7248         estimate D2E/DX2                !
 ! D32   D(1,5,14,15)         -124.6372         estimate D2E/DX2                !
 ! D33   D(4,5,14,15)         -117.1595         estimate D2E/DX2                !
 ! D34   D(10,5,14,15)           2.082          estimate D2E/DX2                !
 ! D35   D(12,5,14,15)         122.6132         estimate D2E/DX2                !
 --------------------------------------------------------------------------------
 Trust Radius=3.00D-01 FncErr=1.00D-07 GrdErr=1.00D-06 EigMax=2.50D+02 EigMin=1.00D-04
 Number of steps in this run=     91 maximum allowed number of steps=    100.
 GradGradGradGradGradGradGradGradGradGradGradGradGradGradGradGradGradGrad

                          Input orientation:                          
 ---------------------------------------------------------------------
 Center     Atomic      Atomic             Coordinates (Angstroms)
 Number     Number       Type             X           Y           Z
 ---------------------------------------------------------------------
      1         14           0       -1.906980   -0.040930   -0.131870
      2          8           0       -2.776610    1.331830   -0.368280
      3          8           0       -2.964720   -1.301380   -0.094090
      4          8           0       -0.625390   -0.321600   -1.096590
      5         40           0        0.867350    0.011170    0.269500
      6          1           0       -3.578330    1.237010   -0.893180
      7          1           0       -2.595050   -2.142800   -0.385010
      8          8           0       -1.073460    0.194030    1.320350
      9          1           0       -1.207450    1.041080    1.764250
     10          8           0        1.077200   -1.462890    1.557410
     11          1           0        0.662480   -1.646070    2.406410
     12          8           0        0.805550    1.811700    1.096960
     13          1           0        1.468760    2.508060    1.033660
     14          8           0        2.521310   -0.009840   -0.772600
     15          1           0        3.347200   -0.490140   -0.872410
 ---------------------------------------------------------------------
                    Distance matrix (angstroms):
                    1          2          3          4          5
     1  Si   0.000000
     2  O    1.642138   0.000000
     3  O    1.645897   2.654121   0.000000
     4  O    1.628476   2.809273   2.727167   0.000000
     5  Zr   2.803697   3.928021   4.066909   2.050661   0.000000
     6  H    2.237439   0.962946   2.731023   3.345220   4.755899
     7  H    2.226068   3.479411   0.963991   2.775370   4.129913
     8  O    1.690830   2.654577   2.795310   2.511621   2.214603
     9  H    2.292457   2.663547   3.468219   3.221816   2.756771
    10  O    3.712273   5.135231   4.369285   3.353367   1.968655
    11  H    3.952400   5.328615   4.419037   3.960283   2.711974
    12  O    3.507147   3.899881   5.032375   3.377902   1.982528
    13  H    4.387645   4.622999   5.953100   4.114657   2.679570
    14  O    4.474512   5.480101   5.676705   3.178661   1.954993
    15  H    5.325091   6.408960   6.411258   3.982478   2.775775
                    6          7          8          9         10
     6  H    0.000000
     7  H    3.556430   0.000000
     8  O    3.501699   3.268679   0.000000
     9  H    3.566706   4.084341   0.965657   0.000000
    10  O    5.913443   4.209595   2.725238   3.395920   0.000000
    11  H    6.097861   4.318596   2.752995   3.336133   0.962470
    12  O    4.848642   5.422028   2.489465   2.256391   3.317943
    13  H    5.549901   6.337008   3.449610   3.138135   4.024435
    14  O    6.226940   5.556697   4.164658   4.630733   3.102540
    15  H    7.137678   6.187017   4.981819   5.481008   3.464559
                   11         12         13         14         15
    11  H    0.000000
    12  O    3.700176   0.000000
    13  H    4.448744   0.963728   0.000000
    14  O    4.029715   3.123635   3.272653   0.000000
    15  H    4.392557   3.954348   4.018811   0.960596   0.000000
 Stoichiometry    H6O7SiZr
 Framework group  C1[X(H6O7SiZr)]
 Deg. of freedom    39
 Full point group                 C1      NOp   1
 Largest Abelian subgroup         C1      NOp   1
 Largest concise Abelian subgroup C1      NOp   1
                         Standard orientation:                         
 ---------------------------------------------------------------------
 Center     Atomic      Atomic             Coordinates (Angstroms)
 Number     Number       Type             X           Y           Z
 ---------------------------------------------------------------------
      1         14           0       -1.778427   -0.038127   -0.154490
      2          8           0       -2.652814    1.346674   -0.274449
      3          8           0       -2.840132   -1.288389   -0.018102
      4          8           0       -0.614041   -0.316883   -1.258317
      5         40           0        1.023632   -0.019813   -0.060407
      6          1           0       -3.508440    1.267842   -0.709139
      7          1           0       -2.514473   -2.128939   -0.359715
      8          8           0       -0.787593    0.166418    1.200248
      9          1           0       -0.862129    1.007922    1.668019
     10          8           0        1.356745   -1.515287    1.175795
     11          1           0        1.035812   -1.707196    2.062655
     12          8           0        1.074073    1.768467    0.793952
     13          1           0        1.734325    2.459056    0.667753
     14          8           0        2.552603   -0.041492   -1.278509
     15          1           0        3.356886   -0.528437   -1.475381
 ---------------------------------------------------------------------
 Rotational constants (GHZ):           1.8033683           0.6773729           0.6414923
 General basis read from cards:  (5D, 7F)
 ======================================================================================================
                                       Pseudopotential Parameters
 ======================================================================================================
  Center     Atomic      Valence      Angular      Power
  Number     Number     Electrons     Momentum     of R      Exponent        Coefficient   SO-Coeffient
 ======================================================================================================
    1         14
                                   No pseudopotential on this center.
    2          8
                                   No pseudopotential on this center.
    3          8
                                   No pseudopotential on this center.
    4          8
                                   No pseudopotential on this center.
    5         40           12
                                      F and up 
                                                     0      645.9321873       -0.04258430    0.00000000
                                                     1      134.7547401      -20.22224090    0.00000000
                                                     2       42.3074619     -101.86951720    0.00000000
                                                     2       12.0003227      -41.61957840    0.00000000
                                                     2        4.1260454       -4.69861600    0.00000000
                                      S - F
                                                     0      117.6251862        2.79105590    0.00000000
                                                     1       22.9646089       41.94894590    0.00000000
                                                     2        4.5225298       67.72718660    0.00000000
                                      P - F
                                                     0       47.1953145        4.99111440    0.00000000
                                                     1       48.0356033       20.71931720    0.00000000
                                                     2       19.4541456      195.58677580    0.00000000
                                                     2        4.0512875       48.28771760    0.00000000
                                      D - F
                                                     0       79.9073983        3.00492260    0.00000000
                                                     1       45.8263798       25.93779890    0.00000000
                                                     2       26.9903522      125.12449340    0.00000000
                                                     2        9.6835718       70.76340220    0.00000000
                                                     2        2.7995666       15.04928220    0.00000000
    6          1
                                   No pseudopotential on this center.
    7          1
                                   No pseudopotential on this center.
    8          8
                                   No pseudopotential on this center.
    9          1
                                   No pseudopotential on this center.
   10          8
                                   No pseudopotential on this center.
   11          1
                                   No pseudopotential on this center.
   12          8
                                   No pseudopotential on this center.
   13          1
                                   No pseudopotential on this center.
   14          8
                                   No pseudopotential on this center.
   15          1
                                   No pseudopotential on this center.
 ======================================================================================================
 There are   178 symmetry adapted cartesian basis functions of A   symmetry.
 There are   168 symmetry adapted basis functions of A   symmetry.
   168 basis functions,   339 primitive gaussians,   178 cartesian basis functions
    44 alpha electrons       44 beta electrons
       nuclear repulsion energy       680.8152938694 Hartrees.
 NAtoms=   15 NActive=   15 NUniq=   15 SFac= 1.00D+00 NAtFMM=   60 NAOKFM=F Big=F
 Integral buffers will be    131072 words long.
 Raffenetti 2 integral format.
 Two-electron integral symmetry is turned on.
 One-electron integrals computed using PRISM.
   1 Symmetry operations used in ECPInt.
 ECPInt:  NShTT=    1770 NPrTT=   10201 LenC2=    1677 LenP2D=    6860.
 LDataN:  DoStor=T MaxTD1= 5 Len=  102
 NBasis=   168 RedAO= T EigKep=  6.63D-03  NBF=   168
 NBsUse=   168 1.00D-06 EigRej= -1.00D+00 NBFU=   168
 Defaulting to unpruned grid for atomic number  40.
 ExpMin= 2.43D-02 ExpMax= 1.61D+04 ExpMxC= 2.43D+03 IAcc=3 IRadAn=         5 AccDes= 0.00D+00
 Harris functional with IExCor=  402 and IRadAn=       5 diagonalized for initial guess.
 HarFok:  IExCor=  402 AccDes= 0.00D+00 IRadAn=         5 IDoV= 1 UseB2=F ITyADJ=14
 ICtDFT=  3500011 ScaDFX=  1.000000  1.000000  1.000000  1.000000
 Defaulting to unpruned grid for atomic number  40.
 FoFCou: FMM=F IPFlag=           0 FMFlag=      100000 FMFlg1=           0
         NFxFlg=           0 DoJE=T BraDBF=F KetDBF=T FulRan=T
         wScrn=  0.000000 ICntrl=       500 IOpCl=  0 I1Cent=   200000004 NGrid=           0
         NMat0=    1 NMatS0=      1 NMatT0=    0 NMatD0=    1 NMtDS0=    0 NMtDT0=    0
 Petite list used in FoFCou.
 Requested convergence on RMS density matrix=1.00D-08 within 128 cycles.
 Requested convergence on MAX density matrix=1.00D-06.
 Requested convergence on             energy=1.00D-06.
 No special actions if energy rises.
 Defaulting to unpruned grid for atomic number  40.
 Defaulting to unpruned grid for atomic number  40.
 Defaulting to unpruned grid for atomic number  40.
 Defaulting to unpruned grid for atomic number  40.
 Defaulting to unpruned grid for atomic number  40.
 Defaulting to unpruned grid for atomic number  40.
 Defaulting to unpruned grid for atomic number  40.
 Defaulting to unpruned grid for atomic number  40.
 Defaulting to unpruned grid for atomic number  40.
 Defaulting to unpruned grid for atomic number  40.
 Defaulting to unpruned grid for atomic number  40.
 Defaulting to unpruned grid for atomic number  40.
 Defaulting to unpruned grid for atomic number  40.
 Defaulting to unpruned grid for atomic number  40.
 Defaulting to unpruned grid for atomic number  40.
 Defaulting to unpruned grid for atomic number  40.
 SCF Done:  E(RB3LYP) =  -866.675350572     A.U. after   15 cycles
            NFock= 15  Conv=0.22D-08     -V/T= 2.0441

 **********************************************************************

            Population analysis using the SCF Density.

 **********************************************************************

 Orbital symmetries:
       Occupied  (A) (A) (A) (A) (A) (A) (A) (A) (A) (A) (A) (A)
                 (A) (A) (A) (A) (A) (A) (A) (A) (A) (A) (A) (A)
                 (A) (A) (A) (A) (A) (A) (A) (A) (A) (A) (A) (A)
                 (A) (A) (A) (A) (A) (A) (A) (A)
       Virtual   (A) (A) (A) (A) (A) (A) (A) (A) (A) (A) (A) (A)
                 (A) (A) (A) (A) (A) (A) (A) (A) (A) (A) (A) (A)
                 (A) (A) (A) (A) (A) (A) (A) (A) (A) (A) (A) (A)
                 (A) (A) (A) (A) (A) (A) (A) (A) (A) (A) (A) (A)
                 (A) (A) (A) (A) (A) (A) (A) (A) (A) (A) (A) (A)
                 (A) (A) (A) (A) (A) (A) (A) (A) (A) (A) (A) (A)
                 (A) (A) (A) (A) (A) (A) (A) (A) (A) (A) (A) (A)
                 (A) (A) (A) (A) (A) (A) (A) (A) (A) (A) (A) (A)
                 (A) (A) (A) (A) (A) (A) (A) (A) (A) (A) (A) (A)
                 (A) (A) (A) (A) (A) (A) (A) (A) (A) (A) (A) (A)
                 (A) (A) (A) (A)
 The electronic state is 1-A.
 Alpha  occ. eigenvalues --  -66.20571 -19.18483 -19.15946 -19.15927 -19.12793
 Alpha  occ. eigenvalues --  -19.12672 -19.12601 -19.12319  -5.35017  -3.71035
 Alpha  occ. eigenvalues --   -3.70924  -3.70853  -2.04814  -1.26151  -1.25487
 Alpha  occ. eigenvalues --   -1.25179  -1.05250  -1.02104  -1.00555  -0.94776
 Alpha  occ. eigenvalues --   -0.93829  -0.93550  -0.93358  -0.59521  -0.55208
 Alpha  occ. eigenvalues --   -0.52981  -0.48070  -0.46961  -0.46071  -0.43444
 Alpha  occ. eigenvalues --   -0.42185  -0.40909  -0.38522  -0.36559  -0.35023
 Alpha  occ. eigenvalues --   -0.34804  -0.33886  -0.32956  -0.32674  -0.31365
 Alpha  occ. eigenvalues --   -0.30594  -0.30358  -0.29603  -0.29292
 Alpha virt. eigenvalues --   -0.01122  -0.00736  -0.00490   0.00761   0.01665
 Alpha virt. eigenvalues --    0.02455   0.03600   0.03743   0.06893   0.08131
 Alpha virt. eigenvalues --    0.09623   0.13746   0.14541   0.15626   0.16104
 Alpha virt. eigenvalues --    0.17010   0.17757   0.18720   0.19584   0.23485
 Alpha virt. eigenvalues --    0.24002   0.24616   0.25146   0.26172   0.28873
 Alpha virt. eigenvalues --    0.30693   0.31710   0.33555   0.36347   0.39010
 Alpha virt. eigenvalues --    0.42447   0.54762   0.61167   0.75716   0.78845
 Alpha virt. eigenvalues --    0.80261   0.84510   0.86799   0.87839   0.88954
 Alpha virt. eigenvalues --    0.90320   0.90484   0.91251   0.94230   0.94791
 Alpha virt. eigenvalues --    0.96331   0.97687   1.00281   1.02562   1.03203
 Alpha virt. eigenvalues --    1.06583   1.08058   1.08800   1.10795   1.11699
 Alpha virt. eigenvalues --    1.12368   1.15878   1.17282   1.19032   1.21221
 Alpha virt. eigenvalues --    1.25054   1.27429   1.34467   1.44533   1.46128
 Alpha virt. eigenvalues --    1.48229   1.48741   1.54597   1.55382   1.56696
 Alpha virt. eigenvalues --    1.57698   1.58572   1.59678   1.61136   1.63448
 Alpha virt. eigenvalues --    1.65210   1.65506   1.68226   1.70164   1.71787
 Alpha virt. eigenvalues --    1.73759   1.76309   1.79942   1.81134   1.82472
 Alpha virt. eigenvalues --    1.83268   1.83609   1.85022   1.87686   1.89447
 Alpha virt. eigenvalues --    1.91520   1.92228   2.00329   2.07606   2.13016
 Alpha virt. eigenvalues --    2.33591   2.35100   2.35923   2.38336   2.39389
 Alpha virt. eigenvalues --    2.41027   2.43195   2.54990   2.58651   2.61038
 Alpha virt. eigenvalues --    2.62692   2.63275   2.64856   2.65219   2.65333
 Alpha virt. eigenvalues --    2.65763   2.65987   2.66284   2.66895   2.71027
 Alpha virt. eigenvalues --    2.76774   2.81200   3.40701   3.41907   3.43496
 Alpha virt. eigenvalues --    3.44059   3.45824   3.48313   5.27429
          Condensed to atoms (all electrons):
               1          2          3          4          5          6
     1  Si  11.574550   0.385169   0.387809   0.338843  -0.100815  -0.021995
     2  O    0.385169   7.948703  -0.020091  -0.010760   0.009070   0.304690
     3  O    0.387809  -0.020091   7.948631  -0.017150   0.005151  -0.000830
     4  O    0.338843  -0.010760  -0.017150   8.254572   0.192494  -0.000306
     5  Zr  -0.100815   0.009070   0.005151   0.192494   9.855139  -0.000909
     6  H   -0.021995   0.304690  -0.000830  -0.000306  -0.000909   0.376846
     7  H   -0.017020   0.000377   0.301665   0.001190  -0.003390  -0.000055
     8  O    0.257477  -0.018072  -0.012123  -0.036518   0.027539   0.000599
     9  H   -0.010373   0.001483  -0.000349   0.000280  -0.004852  -0.000024
    10  O   -0.010271  -0.000000  -0.000013   0.000023   0.235706   0.000000
    11  H    0.000039  -0.000000  -0.000009  -0.000096  -0.018865   0.000000
    12  O   -0.014743  -0.000025  -0.000001   0.000177   0.231206   0.000001
    13  H    0.000744  -0.000004   0.000000  -0.000021  -0.017012   0.000000
    14  O   -0.002138  -0.000000  -0.000000   0.000714   0.210863   0.000000
    15  H    0.000067  -0.000000   0.000000  -0.000062  -0.015355  -0.000000
               7          8          9         10         11         12
     1  Si  -0.017020   0.257477  -0.010373  -0.010271   0.000039  -0.014743
     2  O    0.000377  -0.018072   0.001483  -0.000000  -0.000000  -0.000025
     3  O    0.301665  -0.012123  -0.000349  -0.000013  -0.000009  -0.000001
     4  O    0.001190  -0.036518   0.000280   0.000023  -0.000096   0.000177
     5  Zr  -0.003390   0.027539  -0.004852   0.235706  -0.018865   0.231206
     6  H   -0.000055   0.000599  -0.000024   0.000000   0.000000   0.000001
     7  H    0.380219  -0.000127   0.000053  -0.000014  -0.000001  -0.000000
     8  O   -0.000127   8.182279   0.299863  -0.012269  -0.001415  -0.025241
     9  H    0.000053   0.299863   0.327145  -0.000441  -0.000148   0.005641
    10  O   -0.000014  -0.012269  -0.000441   8.176748   0.295025   0.000594
    11  H   -0.000001  -0.001415  -0.000148   0.295025   0.398239  -0.000328
    12  O   -0.000000  -0.025241   0.005641   0.000594  -0.000328   8.222755
    13  H    0.000000   0.000911  -0.000029  -0.000070  -0.000001   0.292503
    14  O   -0.000000  -0.000393   0.000020   0.000968   0.000019   0.000684
    15  H    0.000000   0.000007  -0.000000  -0.000447   0.000002  -0.000083
              13         14         15
     1  Si   0.000744  -0.002138   0.000067
     2  O   -0.000004  -0.000000  -0.000000
     3  O    0.000000  -0.000000   0.000000
     4  O   -0.000021   0.000714  -0.000062
     5  Zr  -0.017012   0.210863  -0.015355
     6  H    0.000000   0.000000  -0.000000
     7  H    0.000000  -0.000000   0.000000
     8  O    0.000911  -0.000393   0.000007
     9  H   -0.000029   0.000020  -0.000000
    10  O   -0.000070   0.000968  -0.000447
    11  H   -0.000001   0.000019   0.000002
    12  O    0.292503   0.000684  -0.000083
    13  H    0.398509  -0.001459   0.000011
    14  O   -0.001459   8.186187   0.295972
    15  H    0.000011   0.295972   0.391602
 Mulliken charges:
               1
     1  Si   1.232658
     2  O   -0.600540
     3  O   -0.592691
     4  O   -0.723380
     5  Zr   1.394031
     6  H    0.341982
     7  H    0.337103
     8  O   -0.662517
     9  H    0.381730
    10  O   -0.685541
    11  H    0.327540
    12  O   -0.713140
    13  H    0.325917
    14  O   -0.691437
    15  H    0.328287
 Sum of Mulliken charges =  -0.00000
 Mulliken charges with hydrogens summed into heavy atoms:
               1
     1  Si   1.232658
     2  O   -0.258558
     3  O   -0.255588
     4  O   -0.723380
     5  Zr   1.394031
     8  O   -0.280787
    10  O   -0.358001
    12  O   -0.387224
    14  O   -0.363151
 Electronic spatial extent (au):  <R**2>=           1760.2736
 Charge=             -0.0000 electrons
 Dipole moment (field-independent basis, Debye):
    X=             -0.6436    Y=             -0.0867    Z=              1.0493  Tot=              1.2340
 Quadrupole moment (field-independent basis, Debye-Ang):
   XX=            -64.6894   YY=            -69.6444   ZZ=            -73.0508
   XY=              1.3964   XZ=              1.7520   YZ=              1.5852
 Traceless Quadrupole moment (field-independent basis, Debye-Ang):
   XX=              4.4388   YY=             -0.5162   ZZ=             -3.9226
   XY=              1.3964   XZ=              1.7520   YZ=              1.5852
 Octapole moment (field-independent basis, Debye-Ang**2):
  XXX=             30.0200  YYY=             -3.8634  ZZZ=             20.6660  XYY=              6.9059
  XXY=             11.4663  XXZ=            -25.6780  XZZ=              6.4395  YZZ=             -4.2034
  YYZ=             -0.3330  XYZ=              4.5316
 Hexadecapole moment (field-independent basis, Debye-Ang**3):
 XXXX=          -1167.7898 YYYY=           -374.8095 ZZZZ=           -315.5377 XXXY=            -76.3099
 XXXZ=             17.0468 YYYX=             74.6605 YYYZ=              9.4812 ZZZX=              0.0258
 ZZZY=            -13.7502 XXYY=           -261.8223 XXZZ=           -260.1101 YYZZ=           -110.2233
 XXYZ=             23.2959 YYXZ=              9.4952 ZZXY=            -22.7352
 N-N= 6.808152938694D+02 E-N=-3.397884507662D+03  KE= 8.300332044239D+02
   1 Symmetry operations used in ECPInt.
 ECPInt:  NShTT=    1770 NPrTT=   10201 LenC2=    1677 LenP2D=    6860.
 LDataN:  DoStor=T MaxTD1= 6 Len=  172
 Calling FoFJK, ICntrl=      2127 FMM=F ISym2X=0 I1Cent= 0 IOpClX= 0 NMat=1 NMatS=1 NMatT=0.
 Defaulting to unpruned grid for atomic number  40.
 Defaulting to unpruned grid for atomic number  40.
 Defaulting to unpruned grid for atomic number  40.
 Defaulting to unpruned grid for atomic number  40.
 Defaulting to unpruned grid for atomic number  40.
 Defaulting to unpruned grid for atomic number  40.
 Defaulting to unpruned grid for atomic number  40.
 Defaulting to unpruned grid for atomic number  40.
 Defaulting to unpruned grid for atomic number  40.
 Defaulting to unpruned grid for atomic number  40.
 Defaulting to unpruned grid for atomic number  40.
 Defaulting to unpruned grid for atomic number  40.
 Defaulting to unpruned grid for atomic number  40.
 Defaulting to unpruned grid for atomic number  40.
 Defaulting to unpruned grid for atomic number  40.
 Defaulting to unpruned grid for atomic number  40.
 ***** Axes restored to original set *****
 -------------------------------------------------------------------
 Center     Atomic                   Forces (Hartrees/Bohr)
 Number     Number              X              Y              Z
 -------------------------------------------------------------------
      1       14          -0.021534793   -0.003577895   -0.016544564
      2        8           0.001329214   -0.000843186    0.002076560
      3        8           0.000483175    0.001063691    0.001518220
      4        8          -0.006487600    0.001840886    0.008966630
      5       40           0.039647557   -0.005658594   -0.004919461
      6        1          -0.000097209   -0.000206897    0.000076427
      7        1           0.000118594   -0.000183778   -0.000095763
      8        8          -0.032041763   -0.002194939    0.010504848
      9        1           0.001549468    0.003332421    0.001230431
     10        8           0.005443809   -0.005492184   -0.000323730
     11        1          -0.000291518    0.001146962   -0.001085630
     12        8           0.004596295    0.012168515    0.002696131
     13        1           0.000960317   -0.000736993   -0.000927138
     14        8           0.005766636   -0.001935832   -0.001999047
     15        1           0.000557817    0.001277822   -0.001173914
 -------------------------------------------------------------------
 Cartesian Forces:  Max     0.039647557 RMS     0.009377673

 GradGradGradGradGradGradGradGradGradGradGradGradGradGradGradGradGradGrad
 Berny optimization.
 FormGI is forming the generalized inverse of G from B-inverse, IUseBI=4.
 Internal  Forces:  Max     0.030282522 RMS     0.005123902
 Search for a local minimum.
 Step number   1 out of a maximum of   91
 All quantities printed in internal units (Hartrees-Bohrs-Radians)
 Mixed Optimization -- RFO/linear search
 Second derivative matrix not updated -- first step.
 ITU=  0
     Eigenvalues ---    0.00230   0.00230   0.00230   0.01885   0.02375
     Eigenvalues ---    0.03732   0.03782   0.04760   0.05232   0.06471
     Eigenvalues ---    0.09334   0.10831   0.11474   0.13259   0.13929
     Eigenvalues ---    0.14474   0.15367   0.15999   0.16000   0.16000
     Eigenvalues ---    0.16000   0.16000   0.18952   0.19683   0.20440
     Eigenvalues ---    0.20513   0.20925   0.22294   0.33334   0.35225
     Eigenvalues ---    0.43277   0.43863   0.54274   0.54624   0.54679
     Eigenvalues ---    0.54844   0.54946   0.553451000.000001000.00000
     Eigenvalues --- 1000.000001000.000001000.000001000.000001000.00000
     Eigenvalues --- 1000.000001000.000001000.000001000.000001000.00000
     Eigenvalues --- 1000.000001000.000001000.000001000.000001000.00000
     Eigenvalues --- 1000.000001000.000001000.000001000.000001000.00000
     Eigenvalues --- 1000.000001000.000001000.000001000.000001000.00000
     Eigenvalues --- 1000.000001000.000001000.000001000.000001000.00000
     Eigenvalues --- 1000.000001000.000001000.000001000.000001000.00000
     Eigenvalues --- 1000.000001000.000001000.000001000.000001000.00000
     Eigenvalues --- 1000.00000
 RFO step:  Lambda=-1.19679874D-02 EMin= 2.30000000D-03
 Linear search not attempted -- first point.
 Iteration  1 RMS(Cart)=  0.04824474 RMS(Int)=  0.00129205
 Iteration  2 RMS(Cart)=  0.00158289 RMS(Int)=  0.00022928
 Iteration  3 RMS(Cart)=  0.00000141 RMS(Int)=  0.00022928
 Iteration  4 RMS(Cart)=  0.00000000 RMS(Int)=  0.00022928
 Iteration  1 RMS(Cart)=  0.00000614 RMS(Int)=  0.00001137
 Iteration  2 RMS(Cart)=  0.00000502 RMS(Int)=  0.00001219
 Iteration  3 RMS(Cart)=  0.00000410 RMS(Int)=  0.00001390
 Iteration  4 RMS(Cart)=  0.00000335 RMS(Int)=  0.00001577
 Iteration  5 RMS(Cart)=  0.00000273 RMS(Int)=  0.00001752
 Iteration  6 RMS(Cart)=  0.00000223 RMS(Int)=  0.00001905
 Iteration  7 RMS(Cart)=  0.00000182 RMS(Int)=  0.00002036
 Iteration  8 RMS(Cart)=  0.00000149 RMS(Int)=  0.00002145
 Iteration  9 RMS(Cart)=  0.00000122 RMS(Int)=  0.00002236
 Iteration 10 RMS(Cart)=  0.00000099 RMS(Int)=  0.00002312
 Variable       Old X    -DE/DX   Delta X   Delta X   Delta X     New X
                                 (Linear)    (Quad)   (Total)
    R1        3.10319  -0.00184   0.00000  -0.00409  -0.00409   3.09910
    R2        3.11029  -0.00103   0.00000  -0.00231  -0.00231   3.10798
    R3        3.07737  -0.00440   0.00000   0.02286   0.02262   3.10000
    R4        5.29822   0.02092   0.00000   0.10224   0.10224   5.40046
    R5        3.19520   0.00189   0.00000  -0.00097  -0.00108   3.19413
    R6        1.81970   0.00006   0.00000   0.00011   0.00011   1.81981
    R7        1.82168   0.00024   0.00000   0.00042   0.00042   1.82210
    R8        3.87519   0.00335   0.00000   0.10560   0.10561   3.98080
    R9        4.18499   0.03028   0.00000   0.21192   0.21216   4.39715
   R10        3.72022   0.00288   0.00000   0.01380   0.01380   3.73402
   R11        3.74644   0.01095   0.00000   0.05434   0.05434   3.80078
   R12        3.69440   0.00704   0.00000   0.03257   0.03257   3.72698
   R13        1.82483   0.00327   0.00000   0.00590   0.00590   1.83073
   R14        1.81880  -0.00105   0.00000  -0.00187  -0.00187   1.81694
   R15        1.82118   0.00019   0.00000   0.00034   0.00034   1.82152
   R16        1.81526  -0.00004   0.00000  -0.00007  -0.00007   1.81520
    A1        1.87881   0.00072   0.00000  -0.00240  -0.00271   1.87610
    A2        2.06640   0.00151   0.00000   0.00121   0.00128   2.06768
    A3        2.12834  -0.00094   0.00000  -0.00463  -0.00458   2.12376
    A4        1.84268  -0.00194   0.00000  -0.01893  -0.01903   1.82364
    A5        1.96857   0.00210   0.00000  -0.00506  -0.00484   1.96373
    A6        2.27426   0.00024   0.00000   0.00695   0.00721   2.28148
    A7        1.98615  -0.00256   0.00000  -0.02326  -0.02345   1.96270
    A8        1.71611  -0.00058   0.00000   0.04820   0.04795   1.76406
    A9        2.02313  -0.00032   0.00000  -0.00188  -0.00188   2.02124
   A10        1.99882  -0.00007   0.00000  -0.00042  -0.00042   1.99840
   A11        1.72163   0.00954   0.00000   0.00000  -0.00001   1.72161
   A12        1.75709   0.00281   0.00000   0.01785   0.01743   1.77452
   A13        1.61659   0.00475   0.00000   0.02499   0.02478   1.64138
   A14        2.43511  -0.00136   0.00000  -0.01186  -0.01174   2.42337
   A15        1.25725  -0.00736   0.00000  -0.02335  -0.02315   1.23410
   A16        1.97350  -0.00098   0.00000  -0.00089  -0.00107   1.97243
   A17        1.98529   0.00069   0.00000   0.01111   0.01098   1.99628
   A18        1.83278   0.00346   0.00000  -0.00349  -0.00351   1.82927
   A19        1.41498   0.00472   0.00000   0.02792   0.02772   1.44271
   A20        1.26573   0.00716   0.00000   0.04276   0.04234   1.30807
   A21        1.99358   0.00395   0.00000   0.02825   0.02752   2.02110
   A22        1.82399  -0.00307   0.00000  -0.02050  -0.02043   1.80356
   A23        1.83238  -0.00486   0.00000  -0.02340  -0.02326   1.80913
   A24        2.03567   0.00144   0.00000   0.00886   0.00882   2.04449
   A25        1.99561  -0.00104   0.00000  -0.00918  -0.00905   1.98657
   A26        2.30994  -0.00220   0.00000  -0.01278  -0.01278   2.29716
   A27        2.22354  -0.00275   0.00000  -0.01600  -0.01600   2.20755
   A28        2.47858   0.00325   0.00000   0.01907   0.01903   2.49761
   A29        3.09003  -0.00390   0.00000  -0.02684  -0.02667   3.06337
   A30        3.05523   0.00012   0.00000   0.00613   0.00592   3.06115
    D1       -0.55056  -0.00202   0.00000  -0.00662  -0.00657  -0.55712
    D2        1.70706   0.00296   0.00000  -0.01509  -0.01493   1.69213
    D3        2.64895  -0.00236   0.00000  -0.00565  -0.00563   2.64332
    D4       -2.67792   0.00167   0.00000   0.03233   0.03211  -2.64581
    D5        2.64795   0.00186   0.00000   0.00870   0.00861   2.65655
    D6        0.33621  -0.00253   0.00000   0.01325   0.01309   0.34931
    D7       -0.55810   0.00219   0.00000   0.00706   0.00697  -0.55112
    D8       -1.59959  -0.00155   0.00000  -0.02969  -0.02934  -1.62893
    D9        2.52138   0.00290   0.00000   0.01475   0.01484   2.53622
   D10        0.50985  -0.00264   0.00000  -0.02250  -0.02259   0.48726
   D11       -1.53051   0.00001   0.00000  -0.00917  -0.00924  -1.53974
   D12       -0.54782   0.00247   0.00000   0.01644   0.01653  -0.53130
   D13       -2.55935  -0.00308   0.00000  -0.02081  -0.02090  -2.58025
   D14        1.68348  -0.00042   0.00000  -0.00748  -0.00755   1.67592
   D15       -0.01284  -0.00158   0.00000  -0.02683  -0.02657  -0.03941
   D16       -2.06943   0.00020   0.00000   0.00108   0.00062  -2.06882
   D17        2.12810  -0.00085   0.00000  -0.01169  -0.01165   2.11644
   D18       -2.15041  -0.00121   0.00000  -0.00197  -0.00220  -2.15262
   D19        2.07498  -0.00057   0.00000   0.00343   0.00378   2.07876
   D20       -0.00207  -0.00030   0.00000  -0.00020  -0.00099  -0.00306
   D21        2.13743   0.00210   0.00000   0.01475   0.01535   2.15278
   D22       -0.93988  -0.00228   0.00000  -0.00761  -0.00789  -0.94777
   D23       -1.54002   0.00148   0.00000  -0.00705  -0.00710  -1.54713
   D24       -0.38761  -0.00406   0.00000  -0.01851  -0.01842  -0.40603
   D25        0.76723   0.00541   0.00000   0.03619   0.03664   0.80387
   D26        2.75975  -0.00038   0.00000   0.00935   0.00914   2.76888
   D27       -2.54653   0.00161   0.00000   0.00826   0.00846  -2.53807
   D28       -2.04160  -0.00116   0.00000   0.01031   0.01057  -2.03103
   D29       -3.09820   0.00357   0.00000   0.01709   0.01706  -3.08114
   D30        1.94000  -0.00433   0.00000  -0.02755  -0.02814   1.91186
   D31       -0.04756   0.00039   0.00000  -0.00252  -0.00238  -0.04993
   D32       -2.17533  -0.00014   0.00000  -0.00425  -0.00436  -2.17969
   D33       -2.04482  -0.00043   0.00000  -0.00570  -0.00589  -2.05070
   D34        0.03634  -0.00138   0.00000  -0.01754  -0.01760   0.01873
   D35        2.14000  -0.00056   0.00000  -0.00578  -0.00607   2.13393
         Item               Value     Threshold  Converged?
 Maximum Force            0.026882     0.000450     NO 
 RMS     Force            0.004524     0.000300     NO 
 Maximum Displacement     0.205047     0.001800     NO 
 RMS     Displacement     0.049431     0.001200     NO 
 Predicted change in Energy=-6.549316D-03
 GradGradGradGradGradGradGradGradGradGradGradGradGradGradGradGradGradGrad

                          Input orientation:                          
 ---------------------------------------------------------------------
 Center     Atomic      Atomic             Coordinates (Angstroms)
 Number     Number       Type             X           Y           Z
 ---------------------------------------------------------------------
      1         14           0       -1.935148   -0.044954   -0.137489
      2          8           0       -2.798970    1.328547   -0.375863
      3          8           0       -2.998546   -1.299307   -0.110364
      4          8           0       -0.645247   -0.335902   -1.108351
      5         40           0        0.889679    0.013923    0.291353
      6          1           0       -3.594164    1.236142   -0.911124
      7          1           0       -2.628620   -2.143327   -0.394080
      8          8           0       -1.173403    0.187983    1.353303
      9          1           0       -1.315956    1.038719    1.794281
     10          8           0        1.132497   -1.480474    1.561086
     11          1           0        0.722745   -1.670150    2.409951
     12          8           0        0.872056    1.855475    1.099832
     13          1           0        1.556676    2.527893    1.008909
     14          8           0        2.553372   -0.013840   -0.767442
     15          1           0        3.384888   -0.481497   -0.879490
 ---------------------------------------------------------------------
                    Distance matrix (angstroms):
                    1          2          3          4          5
     1  Si   0.000000
     2  O    1.639975   0.000000
     3  O    1.644674   2.648762   0.000000
     4  O    1.640448   2.818768   2.731693   0.000000
     5  Zr   2.857800   3.972348   4.123620   2.106549   0.000000
     6  H    2.234290   0.963004   2.724790   3.347586   4.800481
     7  H    2.224839   3.476098   0.964215   2.776822   4.183536
     8  O    1.690259   2.633129   2.772273   2.571604   2.326873
     9  H    2.299887   2.644400   3.453281   3.280961   2.858990
    10  O    3.788973   5.205651   4.460053   3.405336   1.975956
    11  H    4.024315   5.399576   4.509714   4.003757   2.711536
    12  O    3.608738   3.991461   5.137975   3.461274   2.011284
    13  H    4.486268   4.725217   6.053947   4.187191   2.698113
    14  O    4.532617   5.531989   5.736547   3.232817   1.972230
    15  H    5.389241   6.462971   6.481404   4.039253   2.800425
                    6          7          8          9         10
     6  H    0.000000
     7  H    3.552523   0.000000
     8  O    3.476543   3.256687   0.000000
     9  H    3.542375   4.078901   0.968780   0.000000
    10  O    5.986079   4.290460   2.853786   3.520744   0.000000
    11  H    6.173474   4.395240   2.857366   3.445770   0.961481
    12  O    4.937068   5.520591   2.651165   2.436544   3.377742
    13  H    5.646795   6.426925   3.612079   3.329634   4.068394
    14  O    6.274974   5.614904   4.292685   4.758362   3.097086
    15  H    7.187381   6.257761   5.119725   5.617655   3.468087
                   11         12         13         14         15
    11  H    0.000000
    12  O    3.764138   0.000000
    13  H    4.503545   0.963907   0.000000
    14  O    4.023728   3.131753   3.257181   0.000000
    15  H    4.395488   3.961500   3.995602   0.960561   0.000000
 Stoichiometry    H6O7SiZr
 Framework group  C1[X(H6O7SiZr)]
 Deg. of freedom    39
 Full point group                 C1      NOp   1
 Largest Abelian subgroup         C1      NOp   1
 Largest concise Abelian subgroup C1      NOp   1
                         Standard orientation:                         
 ---------------------------------------------------------------------
 Center     Atomic      Atomic             Coordinates (Angstroms)
 Number     Number       Type             X           Y           Z
 ---------------------------------------------------------------------
      1         14           0       -1.811509   -0.038229   -0.157925
      2          8           0       -2.676389    1.348607   -0.292772
      3          8           0       -2.883407   -1.277373   -0.014723
      4          8           0       -0.643998   -0.342909   -1.269302
      5         40           0        1.044243   -0.021789   -0.050995
      6          1           0       -3.528246    1.270150   -0.734994
      7          1           0       -2.560392   -2.125219   -0.341108
      8          8           0       -0.882843    0.176628    1.237923
      9          1           0       -0.962099    1.027185    1.694878
     10          8           0        1.406917   -1.525591    1.178415
     11          1           0        1.092954   -1.713471    2.067557
     12          8           0        1.145236    1.815918    0.760112
     13          1           0        1.825036    2.478913    0.594502
     14          8           0        2.577054   -0.068233   -1.291166
     15          1           0        3.383599   -0.547182   -1.497977
 ---------------------------------------------------------------------
 Rotational constants (GHZ):           1.7698093           0.6544761           0.6197805
 Basis read from rwf:  (5D, 7F)
 Pseudo-potential data read from rwf file.
 There are   178 symmetry adapted cartesian basis functions of A   symmetry.
 There are   168 symmetry adapted basis functions of A   symmetry.
   168 basis functions,   339 primitive gaussians,   178 cartesian basis functions
    44 alpha electrons       44 beta electrons
       nuclear repulsion energy       672.2278863492 Hartrees.
 NAtoms=   15 NActive=   15 NUniq=   15 SFac= 1.00D+00 NAtFMM=   60 NAOKFM=F Big=F
 Integral buffers will be    131072 words long.
 Raffenetti 2 integral format.
 Two-electron integral symmetry is turned on.
 One-electron integrals computed using PRISM.
   1 Symmetry operations used in ECPInt.
 ECPInt:  NShTT=    1770 NPrTT=   10201 LenC2=    1672 LenP2D=    6817.
 LDataN:  DoStor=T MaxTD1= 5 Len=  102
 NBasis=   168 RedAO= T EigKep=  6.96D-03  NBF=   168
 NBsUse=   168 1.00D-06 EigRej= -1.00D+00 NBFU=   168
 Defaulting to unpruned grid for atomic number  40.
 Initial guess from the checkpoint file:  "/localscratch/sarashs.33453167.0/Gau-16414.chk"
 B after Tr=    -0.000000   -0.000000    0.000000
         Rot=    0.999982    0.005758   -0.000304    0.001473 Ang=   0.68 deg.
 ExpMin= 2.43D-02 ExpMax= 1.61D+04 ExpMxC= 2.43D+03 IAcc=3 IRadAn=         5 AccDes= 0.00D+00
 Harris functional with IExCor=  402 and IRadAn=       5 diagonalized for initial guess.
 HarFok:  IExCor=  402 AccDes= 0.00D+00 IRadAn=         5 IDoV= 1 UseB2=F ITyADJ=14
 ICtDFT=  3500011 ScaDFX=  1.000000  1.000000  1.000000  1.000000
 Defaulting to unpruned grid for atomic number  40.
 FoFCou: FMM=F IPFlag=           0 FMFlag=      100000 FMFlg1=           0
         NFxFlg=           0 DoJE=T BraDBF=F KetDBF=T FulRan=T
         wScrn=  0.000000 ICntrl=       500 IOpCl=  0 I1Cent=   200000004 NGrid=           0
         NMat0=    1 NMatS0=      1 NMatT0=    0 NMatD0=    1 NMtDS0=    0 NMtDT0=    0
 Petite list used in FoFCou.
 Requested convergence on RMS density matrix=1.00D-08 within 128 cycles.
 Requested convergence on MAX density matrix=1.00D-06.
 Requested convergence on             energy=1.00D-06.
 No special actions if energy rises.
 Defaulting to unpruned grid for atomic number  40.
 Defaulting to unpruned grid for atomic number  40.
 Defaulting to unpruned grid for atomic number  40.
 Defaulting to unpruned grid for atomic number  40.
 Defaulting to unpruned grid for atomic number  40.
 Defaulting to unpruned grid for atomic number  40.
 Defaulting to unpruned grid for atomic number  40.
 Defaulting to unpruned grid for atomic number  40.
 Defaulting to unpruned grid for atomic number  40.
 Defaulting to unpruned grid for atomic number  40.
 Defaulting to unpruned grid for atomic number  40.
 Defaulting to unpruned grid for atomic number  40.
 Defaulting to unpruned grid for atomic number  40.
 Defaulting to unpruned grid for atomic number  40.
 Defaulting to unpruned grid for atomic number  40.
 Defaulting to unpruned grid for atomic number  40.
 SCF Done:  E(RB3LYP) =  -866.681726040     A.U. after   11 cycles
            NFock= 11  Conv=0.43D-08     -V/T= 2.0445
   1 Symmetry operations used in ECPInt.
 ECPInt:  NShTT=    1770 NPrTT=   10201 LenC2=    1672 LenP2D=    6817.
 LDataN:  DoStor=T MaxTD1= 6 Len=  172
 Calling FoFJK, ICntrl=      2127 FMM=F ISym2X=0 I1Cent= 0 IOpClX= 0 NMat=1 NMatS=1 NMatT=0.
 Defaulting to unpruned grid for atomic number  40.
 Defaulting to unpruned grid for atomic number  40.
 Defaulting to unpruned grid for atomic number  40.
 Defaulting to unpruned grid for atomic number  40.
 Defaulting to unpruned grid for atomic number  40.
 Defaulting to unpruned grid for atomic number  40.
 Defaulting to unpruned grid for atomic number  40.
 Defaulting to unpruned grid for atomic number  40.
 Defaulting to unpruned grid for atomic number  40.
 Defaulting to unpruned grid for atomic number  40.
 Defaulting to unpruned grid for atomic number  40.
 Defaulting to unpruned grid for atomic number  40.
 Defaulting to unpruned grid for atomic number  40.
 Defaulting to unpruned grid for atomic number  40.
 Defaulting to unpruned grid for atomic number  40.
 Defaulting to unpruned grid for atomic number  40.
 ***** Axes restored to original set *****
 -------------------------------------------------------------------
 Center     Atomic                   Forces (Hartrees/Bohr)
 Number     Number              X              Y              Z
 -------------------------------------------------------------------
      1       14          -0.013919502   -0.004707136   -0.018586233
      2        8          -0.000251334    0.001124682    0.000407840
      3        8          -0.000031553   -0.001007083    0.000797207
      4        8           0.000792765    0.007205217    0.027676243
      5       40           0.023442661    0.002522990   -0.008532186
      6        1           0.000115969    0.000061662   -0.000116439
      7        1          -0.000252029    0.000113193   -0.000259723
      8        8          -0.007270501    0.000127167    0.003284211
      9        1           0.000972961    0.000034424   -0.001510661
     10        8           0.002389003    0.001565010   -0.004274396
     11        1          -0.000752347    0.000457159    0.000703469
     12        8           0.000497902   -0.006509822   -0.002482988
     13        1           0.000571976   -0.000838010   -0.000872581
     14        8          -0.006284932   -0.000510552    0.004129865
     15        1          -0.000021039    0.000361099   -0.000363627
 -------------------------------------------------------------------
 Cartesian Forces:  Max     0.027676243 RMS     0.007014538

 GradGradGradGradGradGradGradGradGradGradGradGradGradGradGradGradGradGrad
 Berny optimization.
 Using GEDIIS/GDIIS optimizer.
 FormGI is forming the generalized inverse of G from B-inverse, IUseBI=4.
 Internal  Forces:  Max     0.012885575 RMS     0.003707690
 Search for a local minimum.
 Step number   2 out of a maximum of   91
 All quantities printed in internal units (Hartrees-Bohrs-Radians)
 Mixed Optimization -- RFO/linear search
 Update second derivatives using D2CorX and points    1    2
 DE= -6.38D-03 DEPred=-6.55D-03 R= 9.73D-01
 TightC=F SS=  1.41D+00  RLast= 3.02D-01 DXNew= 5.0454D-01 9.0560D-01
 Trust test= 9.73D-01 RLast= 3.02D-01 DXMaxT set to 5.05D-01
 ITU=  1  0
 Use linear search instead of GDIIS.
     Eigenvalues ---    0.00230   0.00230   0.00230   0.01882   0.02436
     Eigenvalues ---    0.03732   0.03782   0.04822   0.05350   0.06304
     Eigenvalues ---    0.08643   0.09626   0.11310   0.13217   0.13370
     Eigenvalues ---    0.14272   0.15493   0.15932   0.15997   0.16000
     Eigenvalues ---    0.16000   0.16009   0.19488   0.19925   0.20361
     Eigenvalues ---    0.20877   0.22275   0.24830   0.33527   0.35461
     Eigenvalues ---    0.43307   0.43928   0.54346   0.54625   0.54680
     Eigenvalues ---    0.54845   0.54980   0.553461000.000001000.00000
     Eigenvalues --- 1000.000001000.000001000.000001000.000001000.00000
     Eigenvalues --- 1000.000001000.000001000.000001000.000001000.00000
     Eigenvalues --- 1000.000001000.000001000.000001000.000001000.00000
     Eigenvalues --- 1000.000001000.000001000.000001000.000001000.00000
     Eigenvalues --- 1000.000001000.000001000.000001000.000001000.00000
     Eigenvalues --- 1000.000001000.000001000.000001000.000001000.00000
     Eigenvalues --- 1000.000001000.000001000.000001000.000001000.00000
     Eigenvalues --- 1000.000001000.000001000.000001000.000001000.00000
     Eigenvalues --- 1000.00000
 RFO step:  Lambda=-1.50811461D-03 EMin= 2.29990473D-03
 Quartic linear search produced a step of  0.17167.
 Iteration  1 RMS(Cart)=  0.02261489 RMS(Int)=  0.00022218
 Iteration  2 RMS(Cart)=  0.00023482 RMS(Int)=  0.00009347
 Iteration  3 RMS(Cart)=  0.00000003 RMS(Int)=  0.00009347
 Iteration  1 RMS(Cart)=  0.00000332 RMS(Int)=  0.00000615
 Iteration  2 RMS(Cart)=  0.00000271 RMS(Int)=  0.00000659
 Iteration  3 RMS(Cart)=  0.00000222 RMS(Int)=  0.00000751
 Iteration  4 RMS(Cart)=  0.00000181 RMS(Int)=  0.00000853
 Iteration  5 RMS(Cart)=  0.00000148 RMS(Int)=  0.00000947
 Iteration  6 RMS(Cart)=  0.00000121 RMS(Int)=  0.00001030
 Iteration  7 RMS(Cart)=  0.00000099 RMS(Int)=  0.00001101
 Variable       Old X    -DE/DX   Delta X   Delta X   Delta X     New X
                                 (Linear)    (Quad)   (Total)
    R1        3.09910   0.00102  -0.00070   0.00292   0.00222   3.10132
    R2        3.10798   0.00087  -0.00040   0.00247   0.00207   3.11006
    R3        3.10000  -0.01126   0.00388   0.00257   0.00639   3.10639
    R4        5.40046   0.01232   0.01755   0.01388   0.03141   5.43187
    R5        3.19413   0.00274  -0.00018  -0.00103  -0.00121   3.19292
    R6        1.81981  -0.00004   0.00002  -0.00008  -0.00006   1.81975
    R7        1.82210  -0.00012   0.00007  -0.00028  -0.00020   1.82190
    R8        3.98080  -0.01102   0.01813   0.01471   0.03281   4.01361
    R9        4.39715   0.00973   0.03642   0.04438   0.08089   4.47805
   R10        3.73402  -0.00362   0.00237  -0.02199  -0.01962   3.71440
   R11        3.80078  -0.00808   0.00933  -0.05194  -0.04261   3.75816
   R12        3.72698  -0.00734   0.00559  -0.04319  -0.03759   3.68938
   R13        1.83073  -0.00080   0.00101  -0.00203  -0.00101   1.82972
   R14        1.81694   0.00085  -0.00032   0.00191   0.00159   1.81852
   R15        1.82152  -0.00010   0.00006  -0.00022  -0.00017   1.82136
   R16        1.81520  -0.00015  -0.00001  -0.00031  -0.00033   1.81487
    A1        1.87610   0.00024  -0.00046   0.00215   0.00159   1.87768
    A2        2.06768   0.00231   0.00022  -0.00093  -0.00068   2.06700
    A3        2.12376   0.00008  -0.00079  -0.00389  -0.00461   2.11915
    A4        1.82364   0.00009  -0.00327  -0.00645  -0.00978   1.81386
    A5        1.96373   0.00356  -0.00083  -0.00109  -0.00186   1.96187
    A6        2.28148  -0.00027   0.00124   0.00175   0.00301   2.28448
    A7        1.96270   0.00063  -0.00403  -0.00574  -0.00980   1.95290
    A8        1.76406  -0.00750   0.00823   0.01133   0.01951   1.78357
    A9        2.02124   0.00005  -0.00032   0.00041   0.00009   2.02133
   A10        1.99840   0.00024  -0.00007   0.00178   0.00171   2.00010
   A11        1.72161   0.01289  -0.00000   0.00000   0.00000   1.72161
   A12        1.77452   0.00182   0.00299   0.00963   0.01242   1.78694
   A13        1.64138   0.00184   0.00425   0.00712   0.01129   1.65267
   A14        2.42337  -0.00181  -0.00201  -0.00753  -0.00950   2.41387
   A15        1.23410  -0.00644  -0.00397  -0.00353  -0.00746   1.22664
   A16        1.97243  -0.00062  -0.00018  -0.00180  -0.00209   1.97033
   A17        1.99628  -0.00128   0.00189   0.00851   0.01030   2.00657
   A18        1.82927   0.00359  -0.00060  -0.00542  -0.00601   1.82326
   A19        1.44271   0.00293   0.00476   0.01632   0.02104   1.46374
   A20        1.30807   0.00212   0.00727   0.00584   0.01296   1.32103
   A21        2.02110   0.00085   0.00472   0.00715   0.01154   2.03264
   A22        1.80356  -0.00116  -0.00351  -0.00737  -0.01085   1.79272
   A23        1.80913  -0.00101  -0.00399  -0.00525  -0.00918   1.79995
   A24        2.04449   0.00032   0.00151  -0.00851  -0.00713   2.03736
   A25        1.98657  -0.00067  -0.00155  -0.00952  -0.01117   1.97540
   A26        2.29716  -0.00134  -0.00219  -0.00919  -0.01138   2.28578
   A27        2.20755  -0.00241  -0.00275  -0.01680  -0.01955   2.18800
   A28        2.49761   0.00077   0.00327   0.00547   0.00872   2.50633
   A29        3.06337  -0.00285  -0.00458  -0.00895  -0.01347   3.04990
   A30        3.06115  -0.00062   0.00102  -0.00590  -0.00506   3.05609
    D1       -0.55712  -0.00144  -0.00113  -0.00423  -0.00534  -0.56246
    D2        1.69213   0.00577  -0.00256  -0.00452  -0.00704   1.68509
    D3        2.64332  -0.00228  -0.00097  -0.00431  -0.00527   2.63805
    D4       -2.64581  -0.00233   0.00551   0.00464   0.01009  -2.63572
    D5        2.65655   0.00101   0.00148  -0.00183  -0.00037   2.65618
    D6        0.34931  -0.00515   0.00225  -0.00151   0.00070   0.35001
    D7       -0.55112   0.00198   0.00120  -0.00200  -0.00081  -0.55194
    D8       -1.62893   0.00161  -0.00504  -0.01139  -0.01636  -1.64529
    D9        2.53622   0.00167   0.00255   0.01468   0.01731   2.55352
   D10        0.48726  -0.00005  -0.00388   0.00355  -0.00037   0.48689
   D11       -1.53974   0.00035  -0.00159   0.00771   0.00608  -1.53367
   D12       -0.53130   0.00058   0.00284   0.01464   0.01755  -0.51374
   D13       -2.58025  -0.00114  -0.00359   0.00351  -0.00012  -2.58037
   D14        1.67592  -0.00073  -0.00130   0.00767   0.00633   1.68225
   D15       -0.03941  -0.00010  -0.00456  -0.01617  -0.02059  -0.06000
   D16       -2.06882  -0.00076   0.00011  -0.01210  -0.01211  -2.08093
   D17        2.11644  -0.00080  -0.00200  -0.01484  -0.01681   2.09963
   D18       -2.15262  -0.00035  -0.00038   0.01384   0.01334  -2.13928
   D19        2.07876  -0.00043   0.00065   0.02221   0.02297   2.10173
   D20       -0.00306   0.00040  -0.00017   0.02246   0.02198   0.01892
   D21        2.15278   0.00182   0.00264   0.02071   0.02355   2.17633
   D22       -0.94777  -0.00195  -0.00135  -0.00436  -0.00587  -0.95364
   D23       -1.54713   0.00313  -0.00122  -0.00781  -0.00896  -1.55608
   D24       -0.40603  -0.00245  -0.00316  -0.00263  -0.00581  -0.41184
   D25        0.80387   0.00139   0.00629   0.01106   0.01753   0.82139
   D26        2.76888  -0.00015   0.00157   0.00343   0.00492   2.77381
   D27       -2.53807   0.00169   0.00145   0.01865   0.02016  -2.51791
   D28       -2.03103  -0.00295   0.00181   0.01714   0.01908  -2.01194
   D29       -3.08114   0.00285   0.00293   0.02240   0.02534  -3.05580
   D30        1.91186  -0.00150  -0.00483   0.00263  -0.00244   1.90942
   D31       -0.04993   0.00013  -0.00041   0.01147   0.01110  -0.03883
   D32       -2.17969  -0.00009  -0.00075  -0.00665  -0.00740  -2.18710
   D33       -2.05070  -0.00082  -0.00101  -0.00119  -0.00230  -2.05301
   D34        0.01873  -0.00052  -0.00302  -0.00860  -0.01162   0.00711
   D35        2.13393  -0.00050  -0.00104  -0.00603  -0.00719   2.12674
         Item               Value     Threshold  Converged?
 Maximum Force            0.008085     0.000450     NO 
 RMS     Force            0.001610     0.000300     NO 
 Maximum Displacement     0.079340     0.001800     NO 
 RMS     Displacement     0.022525     0.001200     NO 
 Predicted change in Energy=-8.014920D-04
 GradGradGradGradGradGradGradGradGradGradGradGradGradGradGradGradGradGrad

                          Input orientation:                          
 ---------------------------------------------------------------------
 Center     Atomic      Atomic             Coordinates (Angstroms)
 Number     Number       Type             X           Y           Z
 ---------------------------------------------------------------------
      1         14           0       -1.941401   -0.046141   -0.136991
      2          8           0       -2.800391    1.330512   -0.382628
      3          8           0       -3.007575   -1.299618   -0.111856
      4          8           0       -0.646757   -0.344041   -1.105148
      5         40           0        0.897800    0.018377    0.306942
      6          1           0       -3.590790    1.240393   -0.925268
      7          1           0       -2.639242   -2.145425   -0.391936
      8          8           0       -1.213405    0.192037    1.369035
      9          1           0       -1.357941    1.051098    1.791669
     10          8           0        1.164238   -1.480538    1.550223
     11          1           0        0.756934   -1.675363    2.400051
     12          8           0        0.896540    1.840727    1.103248
     13          1           0        1.589582    2.500479    0.987620
     14          8           0        2.539363   -0.002747   -0.749677
     15          1           0        3.374903   -0.460518   -0.870774
 ---------------------------------------------------------------------
                    Distance matrix (angstroms):
                    1          2          3          4          5
     1  Si   0.000000
     2  O    1.641150   0.000000
     3  O    1.645771   2.652136   0.000000
     4  O    1.643830   2.822109   2.733719   0.000000
     5  Zr   2.874421   3.984196   4.143001   2.123912   0.000000
     6  H    2.235405   0.962970   2.730098   3.348151   4.812391
     7  H    2.226875   3.479683   0.964108   2.779146   4.204894
     8  O    1.689621   2.623542   2.763534   2.594234   2.369680
     9  H    2.294360   2.624176   3.445369   3.292984   2.891244
    10  O    3.814338   5.230315   4.494359   3.409153   1.965575
    11  H    4.046227   5.425232   4.541188   4.003647   2.696239
    12  O    3.626620   4.016895   5.155615   3.468716   1.988734
    13  H    4.496427   4.745341   6.064935   4.179974   2.665092
    14  O    4.522666   5.515911   5.732121   3.224004   1.952337
    15  H    5.382679   6.448281   6.481980   4.030167   2.784312
                    6          7          8          9         10
     6  H    0.000000
     7  H    3.557197   0.000000
     8  O    3.466243   3.255419   0.000000
     9  H    3.521817   4.077698   0.968244   0.000000
    10  O    6.011806   4.322096   2.912648   3.581741   0.000000
    11  H    6.201781   4.421556   2.903861   3.503772   0.962321
    12  O    4.960989   5.534143   2.690853   2.485985   3.361882
    13  H    5.664204   6.431994   3.651180   3.381581   4.043010
    14  O    6.257396   5.615781   4.313948   4.770535   3.060126
    15  H    7.170561   6.264035   5.147343   5.636790   3.433468
                   11         12         13         14         15
    11  H    0.000000
    12  O    3.750211   0.000000
    13  H    4.486193   0.963820   0.000000
    14  O    3.986915   3.087166   3.191618   0.000000
    15  H    4.362100   3.915964   3.925367   0.960388   0.000000
 Stoichiometry    H6O7SiZr
 Framework group  C1[X(H6O7SiZr)]
 Deg. of freedom    39
 Full point group                 C1      NOp   1
 Largest Abelian subgroup         C1      NOp   1
 Largest concise Abelian subgroup C1      NOp   1
                         Standard orientation:                         
 ---------------------------------------------------------------------
 Center     Atomic      Atomic             Coordinates (Angstroms)
 Number     Number       Type             X           Y           Z
 ---------------------------------------------------------------------
      1         14           0       -1.820511   -0.037840   -0.156377
      2          8           0       -2.680452    1.353479   -0.290938
      3          8           0       -2.896126   -1.275438   -0.015065
      4          8           0       -0.652589   -0.346920   -1.271098
      5         40           0        1.051761   -0.019398   -0.046794
      6          1           0       -3.530111    1.279700   -0.738094
      7          1           0       -2.576405   -2.124276   -0.341801
      8          8           0       -0.918035    0.176857    1.255806
      9          1           0       -0.998668    1.034418    1.698057
     10          8           0        1.437792   -1.532458    1.146987
     11          1           0        1.129439   -1.728280    2.037287
     12          8           0        1.172237    1.796050    0.756136
     13          1           0        1.857376    2.446332    0.564656
     14          8           0        2.558234   -0.056180   -1.288087
     15          1           0        3.366593   -0.525337   -1.508976
 ---------------------------------------------------------------------
 Rotational constants (GHZ):           1.7794604           0.6499539           0.6157134
 Basis read from rwf:  (5D, 7F)
 Pseudo-potential data read from rwf file.
 There are   178 symmetry adapted cartesian basis functions of A   symmetry.
 There are   168 symmetry adapted basis functions of A   symmetry.
   168 basis functions,   339 primitive gaussians,   178 cartesian basis functions
    44 alpha electrons       44 beta electrons
       nuclear repulsion energy       671.3991980162 Hartrees.
 NAtoms=   15 NActive=   15 NUniq=   15 SFac= 1.00D+00 NAtFMM=   60 NAOKFM=F Big=F
 Integral buffers will be    131072 words long.
 Raffenetti 2 integral format.
 Two-electron integral symmetry is turned on.
 One-electron integrals computed using PRISM.
   1 Symmetry operations used in ECPInt.
 ECPInt:  NShTT=    1770 NPrTT=   10201 LenC2=    1672 LenP2D=    6812.
 LDataN:  DoStor=T MaxTD1= 5 Len=  102
 NBasis=   168 RedAO= T EigKep=  7.06D-03  NBF=   168
 NBsUse=   168 1.00D-06 EigRej= -1.00D+00 NBFU=   168
 Defaulting to unpruned grid for atomic number  40.
 Initial guess from the checkpoint file:  "/localscratch/sarashs.33453167.0/Gau-16414.chk"
 B after Tr=    -0.000000    0.000000   -0.000000
         Rot=    0.999997   -0.002312   -0.001138    0.000233 Ang=  -0.30 deg.
 ExpMin= 2.43D-02 ExpMax= 1.61D+04 ExpMxC= 2.43D+03 IAcc=3 IRadAn=         5 AccDes= 0.00D+00
 Harris functional with IExCor=  402 and IRadAn=       5 diagonalized for initial guess.
 HarFok:  IExCor=  402 AccDes= 0.00D+00 IRadAn=         5 IDoV= 1 UseB2=F ITyADJ=14
 ICtDFT=  3500011 ScaDFX=  1.000000  1.000000  1.000000  1.000000
 Defaulting to unpruned grid for atomic number  40.
 FoFCou: FMM=F IPFlag=           0 FMFlag=      100000 FMFlg1=           0
         NFxFlg=           0 DoJE=T BraDBF=F KetDBF=T FulRan=T
         wScrn=  0.000000 ICntrl=       500 IOpCl=  0 I1Cent=   200000004 NGrid=           0
         NMat0=    1 NMatS0=      1 NMatT0=    0 NMatD0=    1 NMtDS0=    0 NMtDT0=    0
 Petite list used in FoFCou.
 Requested convergence on RMS density matrix=1.00D-08 within 128 cycles.
 Requested convergence on MAX density matrix=1.00D-06.
 Requested convergence on             energy=1.00D-06.
 No special actions if energy rises.
 Defaulting to unpruned grid for atomic number  40.
 Defaulting to unpruned grid for atomic number  40.
 Defaulting to unpruned grid for atomic number  40.
 Defaulting to unpruned grid for atomic number  40.
 Defaulting to unpruned grid for atomic number  40.
 Defaulting to unpruned grid for atomic number  40.
 Defaulting to unpruned grid for atomic number  40.
 Defaulting to unpruned grid for atomic number  40.
 Defaulting to unpruned grid for atomic number  40.
 Defaulting to unpruned grid for atomic number  40.
 Defaulting to unpruned grid for atomic number  40.
 Defaulting to unpruned grid for atomic number  40.
 Defaulting to unpruned grid for atomic number  40.
 Defaulting to unpruned grid for atomic number  40.
 Defaulting to unpruned grid for atomic number  40.
 Defaulting to unpruned grid for atomic number  40.
 SCF Done:  E(RB3LYP) =  -866.682592386     A.U. after   11 cycles
            NFock= 11  Conv=0.36D-08     -V/T= 2.0445
   1 Symmetry operations used in ECPInt.
 ECPInt:  NShTT=    1770 NPrTT=   10201 LenC2=    1672 LenP2D=    6812.
 LDataN:  DoStor=T MaxTD1= 6 Len=  172
 Calling FoFJK, ICntrl=      2127 FMM=F ISym2X=0 I1Cent= 0 IOpClX= 0 NMat=1 NMatS=1 NMatT=0.
 Defaulting to unpruned grid for atomic number  40.
 Defaulting to unpruned grid for atomic number  40.
 Defaulting to unpruned grid for atomic number  40.
 Defaulting to unpruned grid for atomic number  40.
 Defaulting to unpruned grid for atomic number  40.
 Defaulting to unpruned grid for atomic number  40.
 Defaulting to unpruned grid for atomic number  40.
 Defaulting to unpruned grid for atomic number  40.
 Defaulting to unpruned grid for atomic number  40.
 Defaulting to unpruned grid for atomic number  40.
 Defaulting to unpruned grid for atomic number  40.
 Defaulting to unpruned grid for atomic number  40.
 Defaulting to unpruned grid for atomic number  40.
 Defaulting to unpruned grid for atomic number  40.
 Defaulting to unpruned grid for atomic number  40.
 Defaulting to unpruned grid for atomic number  40.
 ***** Axes restored to original set *****
 -------------------------------------------------------------------
 Center     Atomic                   Forces (Hartrees/Bohr)
 Number     Number              X              Y              Z
 -------------------------------------------------------------------
      1       14          -0.012009537   -0.005677736   -0.019768329
      2        8          -0.000503750    0.001049987   -0.000033509
      3        8          -0.000178013   -0.000789591    0.000616109
      4        8           0.000701949    0.008951631    0.032044366
      5       40           0.009933726   -0.002554520   -0.013585208
      6        1           0.000188878    0.000083239   -0.000223811
      7        1          -0.000139013    0.000264859   -0.000410289
      8        8          -0.001339726   -0.000530072    0.001504510
      9        1           0.000571382    0.000024370   -0.001264954
     10        8           0.000998178   -0.001658441    0.000982368
     11        1          -0.000049464    0.000057494    0.000434316
     12        8           0.000353061    0.000817169    0.000962182
     13        1           0.000290134    0.000099484   -0.000266634
     14        8           0.001092882   -0.000404975   -0.000355579
     15        1           0.000089311    0.000267103   -0.000635539
 -------------------------------------------------------------------
 Cartesian Forces:  Max     0.032044366 RMS     0.006637013

 GradGradGradGradGradGradGradGradGradGradGradGradGradGradGradGradGradGrad
 Berny optimization.
 Using GEDIIS/GDIIS optimizer.
 FormGI is forming the generalized inverse of G from B-inverse, IUseBI=4.
 Internal  Forces:  Max     0.013921316 RMS     0.003630871
 Search for a local minimum.
 Step number   3 out of a maximum of   91
 All quantities printed in internal units (Hartrees-Bohrs-Radians)
 Mixed Optimization -- En-DIIS/RFO-DIIS
 Update second derivatives using D2CorX and points    1    2    3
 DE= -8.66D-04 DEPred=-8.01D-04 R= 1.08D+00
 TightC=F SS=  1.41D+00  RLast= 1.46D-01 DXNew= 8.4853D-01 4.3891D-01
 Trust test= 1.08D+00 RLast= 1.46D-01 DXMaxT set to 5.05D-01
 ITU=  1  1  0
 Use linear search instead of GDIIS.
     Eigenvalues ---    0.00229   0.00230   0.00230   0.01833   0.02422
     Eigenvalues ---    0.03702   0.03777   0.04818   0.05340   0.06169
     Eigenvalues ---    0.07232   0.09549   0.11328   0.13036   0.13668
     Eigenvalues ---    0.14259   0.15570   0.15894   0.15998   0.16000
     Eigenvalues ---    0.16005   0.16018   0.19593   0.20010   0.20290
     Eigenvalues ---    0.20865   0.22330   0.28062   0.33588   0.35882
     Eigenvalues ---    0.43298   0.43949   0.54357   0.54626   0.54691
     Eigenvalues ---    0.54845   0.54969   0.553461000.000001000.00000
     Eigenvalues --- 1000.000001000.000001000.000001000.000001000.00000
     Eigenvalues --- 1000.000001000.000001000.000001000.000001000.00000
     Eigenvalues --- 1000.000001000.000001000.000001000.000001000.00000
     Eigenvalues --- 1000.000001000.000001000.000001000.000001000.00000
     Eigenvalues --- 1000.000001000.000001000.000001000.000001000.00000
     Eigenvalues --- 1000.000001000.000001000.000001000.000001000.00000
     Eigenvalues --- 1000.000001000.000001000.000001000.000001000.00000
     Eigenvalues --- 1000.000001000.000001000.000001000.000001000.00000
     Eigenvalues --- 1000.00000
 RFO step:  Lambda=-1.60363017D-04 EMin= 2.29276014D-03
 Quartic linear search produced a step of  0.02255.
 Iteration  1 RMS(Cart)=  0.01009161 RMS(Int)=  0.00008958
 Iteration  2 RMS(Cart)=  0.00007042 RMS(Int)=  0.00001974
 Iteration  3 RMS(Cart)=  0.00000001 RMS(Int)=  0.00001974
 Iteration  1 RMS(Cart)=  0.00000119 RMS(Int)=  0.00000220
 Iteration  2 RMS(Cart)=  0.00000097 RMS(Int)=  0.00000236
 Variable       Old X    -DE/DX   Delta X   Delta X   Delta X     New X
                                 (Linear)    (Quad)   (Total)
    R1        3.10132   0.00115   0.00005   0.00295   0.00300   3.10432
    R2        3.11006   0.00061   0.00005   0.00166   0.00171   3.11176
    R3        3.10639  -0.01392   0.00014  -0.00380  -0.00366   3.10273
    R4        5.43187   0.01067   0.00071  -0.00089  -0.00019   5.43168
    R5        3.19292   0.00335  -0.00003   0.00019   0.00018   3.19310
    R6        1.81975  -0.00004  -0.00000  -0.00007  -0.00008   1.81967
    R7        1.82190  -0.00017  -0.00000  -0.00033  -0.00034   1.82156
    R8        4.01361  -0.01352   0.00074   0.00206   0.00279   4.01640
    R9        4.47805   0.00527   0.00182   0.01294   0.01478   4.49283
   R10        3.71440   0.00225  -0.00044   0.01006   0.00962   3.72402
   R11        3.75816   0.00112  -0.00096   0.00220   0.00124   3.75940
   R12        3.68938   0.00153  -0.00085   0.00429   0.00344   3.69282
   R13        1.82972  -0.00062  -0.00002  -0.00126  -0.00129   1.82843
   R14        1.81852   0.00039   0.00004   0.00090   0.00093   1.81946
   R15        1.82136   0.00031  -0.00000   0.00057   0.00057   1.82193
   R16        1.81487   0.00003  -0.00001   0.00003   0.00002   1.81489
    A1        1.87768  -0.00019   0.00004   0.00156   0.00160   1.87928
    A2        2.06700   0.00218  -0.00002  -0.00174  -0.00176   2.06523
    A3        2.11915   0.00054  -0.00010  -0.00379  -0.00387   2.11528
[...]
 ! A18   A(4,5,14)             101.3669         -DE/DX =    0.0034              !
 ! A19   A(8,5,10)              86.7966         -DE/DX =    0.0011              !
 ! A20   A(8,5,12)              74.9593         -DE/DX =    0.0015              !
 ! A21   A(10,5,12)            114.6549         -DE/DX =    0.0001              !
 ! A22   A(10,5,14)            104.2234         -DE/DX =    0.0004              !
 ! A23   A(12,5,14)            103.1452         -DE/DX =   -0.0004              !
 ! A24   A(1,8,9)              116.2621         -DE/DX =    0.0003              !
 ! A25   A(5,8,9)              108.6639         -DE/DX =    0.0004              !
 ! A26   A(5,10,11)            128.9571         -DE/DX =   -0.0003              !
 ! A27   A(5,12,13)            124.4875         -DE/DX =    0.0001              !
 ! A28   A(5,14,15)            165.1286         -DE/DX =   -0.0002              !
 ! A29   L(8,5,14,4,-1)        171.5166         -DE/DX =   -0.0025              !
 ! A30   L(8,5,14,4,-2)        171.6982         -DE/DX =   -0.0005              !
 ! D1    D(3,1,2,6)            -34.514          -DE/DX =   -0.0012              !
 ! D2    D(4,1,2,6)             95.1899         -DE/DX =    0.0059              !
 ! D3    D(5,1,2,6)            149.4931         -DE/DX =   -0.002               !
 ! D4    D(8,1,2,6)           -153.3586         -DE/DX =   -0.0029              !
 ! D5    D(2,1,3,7)            148.5164         -DE/DX =    0.0006              !
 ! D6    D(4,1,3,7)             15.7527         -DE/DX =   -0.0049              !
 ! D7    D(5,1,3,7)            -36.1852         -DE/DX =    0.0018              !
 ! D8    D(8,1,3,7)            -98.2296         -DE/DX =    0.0025              !
 ! D9    D(2,1,5,10)           147.4828         -DE/DX =    0.0011              !
 ! D10   D(2,1,5,12)            30.1797         -DE/DX =    0.0004              !
 ! D11   D(2,1,5,14)           -83.7838         -DE/DX =    0.0002              !
 ! D12   D(3,1,5,10)           -27.381          -DE/DX =   -0.0001              !
 ! D13   D(3,1,5,12)          -144.6841         -DE/DX =   -0.0008              !
 ! D14   D(3,1,5,14)           101.3523         -DE/DX =   -0.0009              !
 ! D15   D(2,1,8,9)             -6.5717         -DE/DX =    0.0005              !
 ! D16   D(3,1,8,9)           -122.7651         -DE/DX =   -0.0002              !
 ! D17   D(4,1,8,9)            116.6351         -DE/DX =   -0.0005              !
 ! D18   D(4,5,8,9)           -122.4707         -DE/DX =    0.0002              !
 ! D19   D(10,5,8,9)           120.7463         -DE/DX =   -0.0003              !
 ! D20   D(12,5,8,9)             4.1524         -DE/DX =    0.0002              !
 ! D21   D(9,8,14,15)         -112.5889         -DE/DX =    0.0003              !
 ! D22   D(1,5,10,11)          -56.6149         -DE/DX =   -0.0017              !
 ! D23   D(4,5,10,11)          -91.9752         -DE/DX =    0.0039              !
 ! D24   D(8,5,10,11)          -25.3382         -DE/DX =   -0.0021              !
 ! D25   D(12,5,10,11)          46.5018         -DE/DX =    0.0001              !
 ! D26   D(14,5,10,11)         158.4946         -DE/DX =   -0.0002              !
 ! D27   D(1,5,12,13)         -142.6995         -DE/DX =    0.001               !
 ! D28   D(4,5,12,13)         -115.0633         -DE/DX =   -0.003               !
 ! D29   D(8,5,12,13)         -172.9634         -DE/DX =    0.0021              !
 ! D30   D(10,5,12,13)         107.8145         -DE/DX =    0.0001              !
 ! D31   D(14,5,12,13)          -4.8179         -DE/DX =   -0.0002              !
 ! D32   D(1,5,14,15)          -18.935          -DE/DX =    0.0009              !
 ! D33   D(4,5,14,15)           -8.2671         -DE/DX =   -0.001               !
 ! D34   D(10,5,14,15)         110.1759         -DE/DX =    0.0                 !
 ! D35   D(12,5,14,15)        -129.75           -DE/DX =    0.0001              !
 --------------------------------------------------------------------------------
 GradGradGradGradGradGradGradGradGradGradGradGradGradGradGradGradGradGrad

                          Input orientation:                          
 ---------------------------------------------------------------------
 Center     Atomic      Atomic             Coordinates (Angstroms)
 Number     Number       Type             X           Y           Z
 ---------------------------------------------------------------------
      1         14           0       -1.919935   -0.078770   -0.149119
      2          8           0       -2.693484    1.332100   -0.483453
      3          8           0       -3.041169   -1.283146   -0.114796
      4          8           0       -0.599094   -0.469431   -1.034153
      5         40           0        0.897347   -0.050100    0.422022
      6          1           0       -3.446037    1.269553   -1.080908
      7          1           0       -2.707536   -2.141528   -0.400391
      8          8           0       -1.241472    0.198568    1.378318
      9          1           0       -1.322723    1.099490    1.726538
     10          8           0        1.183795   -1.511717    1.714216
     11          1           0        0.769576   -1.651049    2.572544
     12          8           0        0.896551    1.778482    1.220421
     13          1           0        1.604402    2.423428    1.108323
     14          8           0        2.502774   -0.055284   -0.667097
     15          1           0        3.138866   -0.141365   -1.377954
 ---------------------------------------------------------------------
                    Distance matrix (angstroms):
                    1          2          3          4          5
     1  Si   0.000000
     2  O    1.643385   0.000000
     3  O    1.645863   2.663889   0.000000
     4  O    1.637230   2.816958   2.733327   0.000000
     5  Zr   2.874735   3.952775   4.161789   2.129700   0.000000
     6  H    2.239463   0.962913   2.759268   3.336366   4.781764
     7  H    2.222256   3.474650   0.964207   2.764614   4.248014
     8  O    1.694194   2.619050   2.768353   2.584355   2.356032
     9  H    2.294134   2.610969   3.467063   3.256773   2.819934
    10  O    3.893392   5.286808   4.609540   3.437818   1.971838
    11  H    4.136784   5.498280   4.677492   4.034569   2.684047
    12  O    3.641101   3.998848   5.163527   3.517552   1.995283
    13  H    4.501456   4.711323   6.067622   4.220691   2.662570
    14  O    4.453000   5.381418   5.705084   3.150847   1.940001
    15  H    5.206287   6.081738   6.410309   3.768047   2.876221
                    6          7          8          9         10
     6  H    0.000000
     7  H    3.555835   0.000000
     8  O    3.472018   3.284692   0.000000
     9  H    3.524080   4.116519   0.969288   0.000000
    10  O    6.081409   4.473331   2.986608   3.619556   0.000000
    11  H    6.296747   4.601003   2.981874   3.557935   0.963180
    12  O    4.940970   5.566233   2.663119   2.375365   3.339425
    13  H    5.624152   6.458162   3.622416   3.271553   4.003672
    14  O    6.108583   5.618797   4.274055   4.658049   3.087322
    15  H    6.740911   6.255933   5.186517   5.575246   3.906621
                   11         12         13         14         15
    11  H    0.000000
    12  O    3.688637   0.000000
    13  H    4.409336   0.964145   0.000000
    14  O    4.005710   3.083079   3.178554   0.000000
    15  H    4.847588   3.932600   3.887714   0.957779   0.000000
 Stoichiometry    H6O7SiZr
 Framework group  C1[X(H6O7SiZr)]
 Deg. of freedom    39
 Full point group                 C1      NOp   1
 Largest Abelian subgroup         C1      NOp   1
 Largest concise Abelian subgroup C1      NOp   1
                         Standard orientation:                         
 ---------------------------------------------------------------------
 Center     Atomic      Atomic             Coordinates (Angstroms)
 Number     Number       Type             X           Y           Z
 ---------------------------------------------------------------------
      1         14           0       -1.821848   -0.033430   -0.151553
      2          8           0       -2.627030    1.394853   -0.262909
      3          8           0       -2.933257   -1.240148   -0.019392
      4          8           0       -0.662304   -0.360271   -1.260226
      5         40           0        1.050596   -0.036364   -0.036838
      6          1           0       -3.465706    1.370866   -0.735402
      7          1           0       -2.656584   -2.076496   -0.411397
      8          8           0       -0.906256    0.141982    1.263089
      9          1           0       -0.923445    1.017175    1.679335
     10          8           0        1.527216   -1.581057    1.092278
     11          1           0        1.253995   -1.778959    1.994443
     12          8           0        1.192326    1.734227    0.872049
     13          1           0        1.878597    2.387010    0.691824
     14          8           0        2.461748    0.035855   -1.366137
     15          1           0        2.975631   -0.000536   -2.173565
 ---------------------------------------------------------------------
 Rotational constants (GHZ):           1.7470800           0.6499833           0.6213104

 **********************************************************************

            Population analysis using the SCF Density.

 **********************************************************************

 Orbital symmetries:
       Occupied  (A) (A) (A) (A) (A) (A) (A) (A) (A) (A) (A) (A)
                 (A) (A) (A) (A) (A) (A) (A) (A) (A) (A) (A) (A)
                 (A) (A) (A) (A) (A) (A) (A) (A) (A) (A) (A) (A)
                 (A) (A) (A) (A) (A) (A) (A) (A)
       Virtual   (A) (A) (A) (A) (A) (A) (A) (A) (A) (A) (A) (A)
                 (A) (A) (A) (A) (A) (A) (A) (A) (A) (A) (A) (A)
                 (A) (A) (A) (A) (A) (A) (A) (A) (A) (A) (A) (A)
                 (A) (A) (A) (A) (A) (A) (A) (A) (A) (A) (A) (A)
                 (A) (A) (A) (A) (A) (A) (A) (A) (A) (A) (A) (A)
                 (A) (A) (A) (A) (A) (A) (A) (A) (A) (A) (A) (A)
                 (A) (A) (A) (A) (A) (A) (A) (A) (A) (A) (A) (A)
                 (A) (A) (A) (A) (A) (A) (A) (A) (A) (A) (A) (A)
                 (A) (A) (A) (A) (A) (A) (A) (A) (A) (A) (A) (A)
                 (A) (A) (A) (A) (A) (A) (A) (A) (A) (A) (A) (A)
                 (A) (A) (A) (A)
 The electronic state is 1-A.
 Alpha  occ. eigenvalues --  -66.20062 -19.18424 -19.15512 -19.15483 -19.13716
 Alpha  occ. eigenvalues --  -19.13191 -19.12751 -19.12508  -5.34476  -3.70505
 Alpha  occ. eigenvalues --   -3.70391  -3.70297  -2.05964  -1.26950  -1.26396
 Alpha  occ. eigenvalues --   -1.25911  -1.04736  -1.01556  -1.00150  -0.95186
 Alpha  occ. eigenvalues --   -0.94618  -0.93826  -0.92874  -0.58883  -0.54411
 Alpha  occ. eigenvalues --   -0.52455  -0.49222  -0.47070  -0.46256  -0.42928
 Alpha  occ. eigenvalues --   -0.41236  -0.40138  -0.38206  -0.36012  -0.34681
 Alpha  occ. eigenvalues --   -0.34416  -0.33871  -0.33639  -0.32816  -0.31651
 Alpha  occ. eigenvalues --   -0.30882  -0.30407  -0.29916  -0.29405
 Alpha virt. eigenvalues --   -0.01753  -0.01620  -0.00442   0.00670   0.01649
 Alpha virt. eigenvalues --    0.02229   0.02563   0.03406   0.05047   0.08280
 Alpha virt. eigenvalues --    0.09415   0.12683   0.14241   0.14855   0.16402
 Alpha virt. eigenvalues --    0.16749   0.18205   0.18932   0.19362   0.23005
 Alpha virt. eigenvalues --    0.24206   0.24650   0.25341   0.26515   0.28843
 Alpha virt. eigenvalues --    0.30905   0.31272   0.33153   0.37133   0.39050
 Alpha virt. eigenvalues --    0.41356   0.55221   0.61541   0.74408   0.78769
 Alpha virt. eigenvalues --    0.80389   0.83881   0.85257   0.88225   0.90126
 Alpha virt. eigenvalues --    0.90584   0.91019   0.92563   0.93516   0.96078
 Alpha virt. eigenvalues --    0.96162   0.98040   0.99748   1.02991   1.03372
 Alpha virt. eigenvalues --    1.06479   1.07687   1.08690   1.09698   1.11635
 Alpha virt. eigenvalues --    1.13343   1.14428   1.18434   1.19862   1.21699
 Alpha virt. eigenvalues --    1.22615   1.27874   1.32084   1.43231   1.46986
 Alpha virt. eigenvalues --    1.47480   1.50070   1.52784   1.54599   1.56621
 Alpha virt. eigenvalues --    1.57777   1.58675   1.59092   1.59853   1.62756
 Alpha virt. eigenvalues --    1.63191   1.64698   1.68301   1.68838   1.70417
 Alpha virt. eigenvalues --    1.73794   1.74882   1.78892   1.81007   1.82615
 Alpha virt. eigenvalues --    1.83411   1.83626   1.84891   1.86196   1.87603
 Alpha virt. eigenvalues --    1.90582   1.93038   2.00015   2.08922   2.13464
 Alpha virt. eigenvalues --    2.33551   2.35476   2.36265   2.37399   2.38772
 Alpha virt. eigenvalues --    2.40477   2.42887   2.55061   2.58498   2.61159
 Alpha virt. eigenvalues --    2.62847   2.63680   2.64124   2.64421   2.64856
 Alpha virt. eigenvalues --    2.65314   2.65807   2.65918   2.66586   2.71096
 Alpha virt. eigenvalues --    2.76766   2.81053   3.40456   3.40821   3.42604
 Alpha virt. eigenvalues --    3.43891   3.45813   3.47117   4.73643
          Condensed to atoms (all electrons):
               1          2          3          4          5          6
     1  Si  11.603860   0.381031   0.391143   0.343274  -0.109310  -0.022882
     2  O    0.381031   7.960309  -0.019412  -0.011231   0.008108   0.304921
     3  O    0.391143  -0.019412   7.945419  -0.017392   0.002518  -0.000991
     4  O    0.343274  -0.011231  -0.017392   8.235836   0.204661  -0.000388
     5  Zr  -0.109310   0.008108   0.002518   0.204661   9.815305  -0.000801
     6  H   -0.022882   0.304921  -0.000991  -0.000388  -0.000801   0.379418
     7  H   -0.016855   0.000316   0.301503   0.001085  -0.003362  -0.000056
     8  O    0.248777  -0.020987  -0.013168  -0.031157   0.078184   0.000715
     9  H   -0.008506   0.001614  -0.000207   0.000181  -0.011396   0.000006
    10  O   -0.009393  -0.000000  -0.000001  -0.000009   0.228815  -0.000000
    11  H    0.000025  -0.000000  -0.000001  -0.000059  -0.017762   0.000000
    12  O   -0.011184  -0.000022  -0.000000   0.000103   0.230582   0.000001
    13  H    0.000625  -0.000004   0.000000  -0.000004  -0.018273  -0.000000
    14  O   -0.002082   0.000000  -0.000000   0.000145   0.211329   0.000000
    15  H    0.000092  -0.000000  -0.000000  -0.000167  -0.014423   0.000000
               7          8          9         10         11         12
     1  Si  -0.016855   0.248777  -0.008506  -0.009393   0.000025  -0.011184
     2  O    0.000316  -0.020987   0.001614  -0.000000  -0.000000  -0.000022
     3  O    0.301503  -0.013168  -0.000207  -0.000001  -0.000001  -0.000000
     4  O    0.001085  -0.031157   0.000181  -0.000009  -0.000059   0.000103
     5  Zr  -0.003362   0.078184  -0.011396   0.228815  -0.017762   0.230582
     6  H   -0.000056   0.000715   0.000006  -0.000000   0.000000   0.000001
     7  H    0.381401   0.000037   0.000048   0.000002  -0.000000  -0.000000
     8  O    0.000037   8.120457   0.295873  -0.004561  -0.001186  -0.013240
     9  H    0.000048   0.295873   0.336944  -0.000428  -0.000072   0.004816
    10  O    0.000002  -0.004561  -0.000428   8.174479   0.293196   0.000566
    11  H   -0.000000  -0.001186  -0.000072   0.293196   0.396970  -0.000344
    12  O   -0.000000  -0.013240   0.004816   0.000566  -0.000344   8.204463
    13  H    0.000000   0.000512  -0.000107  -0.000077   0.000001   0.292777
    14  O   -0.000000  -0.000180   0.000025   0.000962   0.000048   0.000049
    15  H    0.000000   0.000003  -0.000000  -0.000040  -0.000001  -0.000136
              13         14         15
     1  Si   0.000625  -0.002082   0.000092
     2  O   -0.000004   0.000000  -0.000000
     3  O    0.000000  -0.000000  -0.000000
     4  O   -0.000004   0.000145  -0.000167
     5  Zr  -0.018273   0.211329  -0.014423
     6  H   -0.000000   0.000000   0.000000
     7  H    0.000000  -0.000000   0.000000
     8  O    0.000512  -0.000180   0.000003
     9  H   -0.000107   0.000025  -0.000000
    10  O   -0.000077   0.000962  -0.000040
    11  H    0.000001   0.000048  -0.000001
    12  O    0.292777   0.000049  -0.000136
    13  H    0.396787  -0.002024  -0.000005
    14  O   -0.002024   8.172875   0.302358
    15  H   -0.000005   0.302358   0.381200
 Mulliken charges:
               1
     1  Si   1.211387
     2  O   -0.604643
     3  O   -0.589412
     4  O   -0.724877
     5  Zr   1.395825
     6  H    0.340056
     7  H    0.335881
     8  O   -0.660079
     9  H    0.381209
    10  O   -0.683510
    11  H    0.329185
    12  O   -0.708433
    13  H    0.329792
    14  O   -0.683503
    15  H    0.331120
 Sum of Mulliken charges =  -0.00000
 Mulliken charges with hydrogens summed into heavy atoms:
               1
     1  Si   1.211387
     2  O   -0.264586
     3  O   -0.253531
     4  O   -0.724877
     5  Zr   1.395825
     8  O   -0.278870
    10  O   -0.354324
    12  O   -0.378641
    14  O   -0.352383
 Electronic spatial extent (au):  <R**2>=           1815.1935
 Charge=             -0.0000 electrons
 Dipole moment (field-independent basis, Debye):
    X=             -0.3465    Y=              0.7122    Z=             -0.2285  Tot=              0.8243
 Quadrupole moment (field-independent basis, Debye-Ang):
   XX=            -67.7020   YY=            -70.7033   ZZ=            -69.0503
   XY=              4.1181   XZ=             -0.5123   YZ=             -0.3035
 Traceless Quadrupole moment (field-independent basis, Debye-Ang):
   XX=              1.4498   YY=             -1.5514   ZZ=              0.1016
   XY=              4.1181   XZ=             -0.5123   YZ=             -0.3035
 Octapole moment (field-independent basis, Debye-Ang**2):
  XXX=             19.7114  YYY=             -3.8192  ZZZ=              4.5809  XYY=              3.2063
  XXY=             23.5121  XXZ=            -34.2393  XZZ=             22.1404  YZZ=             -3.1750
  YYZ=              0.3214  XYZ=             -1.4909
 Hexadecapole moment (field-independent basis, Debye-Ang**3):
 XXXX=          -1305.7718 YYYY=           -386.4984 ZZZZ=           -299.7599 XXXY=            -28.7456
 XXXZ=             10.1824 YYYX=             74.0911 YYYZ=              4.7662 ZZZX=            -40.5377
 ZZZY=            -18.1055 XXYY=           -268.9630 XXZZ=           -229.1251 YYZZ=           -114.0450
 XXYZ=              5.1598 YYXZ=             16.1303 ZZXY=            -20.3042
 N-N= 6.711834463645D+02 E-N=-3.378435425156D+03  KE= 8.297758875457D+02
 1\1\GINC-GRA1232\FOpt\RB3LYP\Gen\H6O7Si1Zr1\SARASHS\24-Jun-2020\0\\#n 
 B3LYP/GEN PSEUDO=READ Opt(modredundant)\\Title\\0,1\Si,-1.9199352295,-
 0.0787703595,-0.1491189147\O,-2.6934836767,1.3321003263,-0.4834532207\
 O,-3.0411691587,-1.2831460529,-0.1147962549\O,-0.599094359,-0.46943112
 17,-1.0341533527\Zr,0.8973470875,-0.0500998997,0.4220218122\H,-3.44603
 72136,1.2695531446,-1.0809076784\H,-2.7075364754,-2.1415279235,-0.4003
 910531\O,-1.241472233,0.1985679166,1.3783180842\H,-1.3227225074,1.0994
 895602,1.7265383293\O,1.1837950667,-1.5117174756,1.7142164457\H,0.7695
 762862,-1.6510489952,2.5725439524\O,0.8965505381,1.7784821297,1.220420
 5334\H,1.6044017448,2.4234283691,1.1083225664\O,2.5027739947,-0.055284
 3763,-0.6670974101\H,3.1388661353,-0.141365242,-1.3779538391\\Version=
 ES64L-G16RevB.01\State=1-A\HF=-866.6832019\RMSD=6.739e-09\RMSF=6.095e-
 03\Dipole=-0.1195218,0.2724032,-0.1291649\Quadrupole=1.1875132,-1.1274
 873,-0.0600259,3.0320663,-0.4081916,0.3414149\PG=C01 [X(H6O7Si1Zr1)]\\
 @


 IF YOU GIVE A BOY AND A PIG EVERYTHING THEY WANT,
 YOU'LL GET A BAD BOY AND A GOOD PIG.
 Job cpu time:       0 days  1 hours 36 minutes 47.6 seconds.
 Elapsed time:       0 days  0 hours  6 minutes 17.9 seconds.
 File lengths (MBytes):  RWF=     23 Int=      0 D2E=      0 Chk=      3 Scr=      1
 Normal termination of Gaussian 16 at Wed Jun 24 14:02:09 2020.
