 Entering Gaussian System, Link 0=g16
 Initial command:
 /opt/software/gaussian/g16.b01/l1.exe "/localscratch/sarashs.33453161.0/Gau-32693.inp" -scrdir="/localscratch/sarashs.33453161.0/"
 Entering Link 1 = /opt/software/gaussian/g16.b01/l1.exe PID=     32694.
  
 Copyright (c) 1988-2017, Gaussian, Inc.  All Rights Reserved.
  
 This is part of the Gaussian(R) 16 program.  It is based on
 the Gaussian(R) 09 system (copyright 2009, Gaussian, Inc.),
 the Gaussian(R) 03 system (copyright 2003, Gaussian, Inc.),
 the Gaussian(R) 98 system (copyright 1998, Gaussian, Inc.),
 the Gaussian(R) 94 system (copyright 1995, Gaussian, Inc.),
 the Gaussian 92(TM) system (copyright 1992, Gaussian, Inc.),
 the Gaussian 90(TM) system (copyright 1990, Gaussian, Inc.),
 the Gaussian 88(TM) system (copyright 1988, Gaussian, Inc.),
 the Gaussian 86(TM) system (copyright 1986, Carnegie Mellon
 University), and the Gaussian 82(TM) system (copyright 1983,
 Carnegie Mellon University). Gaussian is a federally registered
 trademark of Gaussian, Inc.
  
 This software contains proprietary and confidential information,
 including trade secrets, belonging to Gaussian, Inc.
  
 This software is provided under written license and may be
 used, copied, transmitted, or stored only in accord with that
 written license.
  
 The following legend is applicable only to US Government
 contracts under FAR:
  
                    RESTRICTED RIGHTS LEGEND
  
 Use, reproduction and disclosure by the US Government is
 subject to restrictions as set forth in subparagraphs (a)
 and (c) of the Commercial Computer Software - Restricted
 Rights clause in FAR 52.227-19.
  
 Gaussian, Inc.
 340 Quinnipiac St., Bldg. 40, Wallingford CT 06492
  
  
 ---------------------------------------------------------------
 Warning -- This program may not be used in any manner that
 competes with the business of Gaussian, Inc. or will provide
 assistance to any competitor of Gaussian, Inc.  The licensee
 of this program is prohibited from giving any competitor of
 Gaussian, Inc. access to this program.  By using this program,
 the user acknowledges that Gaussian, Inc. is engaged in the
 business of creating and licensing software in the field of
 computational chemistry and represents and warrants to the
 licensee that it is not a competitor of Gaussian, Inc. and that
 it will not use this program in any manner prohibited above.
 ---------------------------------------------------------------
  

 Cite this work as:
 Gaussian 16, Revision B.01,
 M. J. Frisch, G. W. Trucks, H. B. Schlegel, G. E. Scuseria, 
 M. A. Robb, J. R. Cheeseman, G. Scalmani, V. Barone, 
 G. A. Petersson, H. Nakatsuji, X. Li, M. Caricato, A. V. Marenich, 
 J. Bloino, B. G. Janesko, R. Gomperts, B. Mennucci, H. P. Hratchian, 
 J. V. Ortiz, A. F. Izmaylov, J. L. Sonnenberg, D. Williams-Young, 
 F. Ding, F. Lipparini, F. Egidi, J. Goings, B. Peng, A. Petrone, 
 T. Henderson, D. Ranasinghe, V. G. Zakrzewski, J. Gao, N. Rega, 
 G. Zheng, W. Liang, M. Hada, M. Ehara, K. Toyota, R. Fukuda, 
 J. Hasegawa, M. Ishida, T. Nakajima, Y. Honda, O. Kitao, H. Nakai, 
 T. Vreven, K. Throssell, J. A. Montgomery, Jr., J. E. Peralta, 
 F. Ogliaro, M. J. Bearpark, J. J. Heyd, E. N. Brothers, K. N. Kudin, 
 V. N. Staroverov, T. A. Keith, R. Kobayashi, J. Normand, 
 K. Raghavachari, A. P. Rendell, J. C. Burant, S. S. Iyengar, 
 J. Tomasi, M. Cossi, J. M. Millam, M. Klene, C. Adamo, R. Cammi, 
 J. W. Ochterski, R. L. Martin, K. Morokuma, O. Farkas, 
 J. B. Foresman, and D. J. Fox, Gaussian, Inc., Wallingford CT, 2016.
 
 ******************************************
 Gaussian 16:  ES64L-G16RevB.01 20-Dec-2017
                24-Jun-2020 
 ******************************************
 %NProcShared=16
 Will use up to   16 processors via shared memory.
 ------------------------------------------
 #n B3LYP/GEN PSEUDO=READ Opt(modredundant)
 ------------------------------------------
 1/18=120,19=15,26=3,38=1/1,3;
 2/9=110,12=2,17=6,18=5,40=1/2;
 3/5=7,11=2,16=1,17=8,25=1,30=1,71=1,74=-5/1,2,3;
 4//1;
 5/5=2,38=5/2;
 6/7=2,8=2,9=2,10=2,28=1/1;
 7//1,2,3,16;
 1/18=20,19=15,26=3/3(2);
 2/9=110/2;
 99//99;
 2/9=110/2;
 3/5=7,6=1,11=2,16=1,17=8,25=1,30=1,71=1,74=-5,82=7/1,2,3;
 4/5=5,16=3,69=1/1;
 5/5=2,38=5/2;
 7//1,2,3,16;
 1/18=20,19=15,26=3/3(-5);
 2/9=110/2;
 6/7=2,8=2,9=2,10=2,19=2,28=1/1;
 99/9=1/99;
 -----
 Title
 -----
 Symbolic Z-matrix:
 Charge =  0 Multiplicity = 1
 Si                   -1.90698  -0.04093  -0.13187 
 O                    -2.77661   1.33183  -0.36828 
 O                    -2.96472  -1.30138  -0.09409 
 O                    -0.62539  -0.3216   -1.09659 
 Zr                    0.77223   0.01782   0.36514 
 H                    -3.57833   1.23701  -0.89318 
 H                    -2.59505  -2.1428   -0.38501 
 O                    -1.07346   0.19403   1.32035 
 H                    -1.20745   1.04108   1.76425 
 O                     0.91297  -1.46148   1.65644 
 H                     0.44596  -1.65354   2.4758 
 O                     0.6388    1.8129    1.196 
 H                     1.29768   2.51602   1.1794 
 O                     2.49039   0.01885  -0.56754 
 H                     3.3258   -0.45283  -0.61601 
 
 The following ModRedundant input section has been read:
 A       1       4       5 F                                                   
 

 GradGradGradGradGradGradGradGradGradGradGradGradGradGradGradGradGradGrad
 Berny optimization.
 Initialization pass.
                           ----------------------------
                           !    Initial Parameters    !
                           ! (Angstroms and Degrees)  !
 --------------------------                            --------------------------
 ! Name  Definition              Value          Derivative Info.                !
 --------------------------------------------------------------------------------
 ! R1    R(1,2)                  1.6421         estimate D2E/DX2                !
 ! R2    R(1,3)                  1.6459         estimate D2E/DX2                !
 ! R3    R(1,4)                  1.6285         estimate D2E/DX2                !
 ! R4    R(1,5)                  2.7256         estimate D2E/DX2                !
 ! R5    R(1,8)                  1.6908         estimate D2E/DX2                !
 ! R6    R(2,6)                  0.9629         estimate D2E/DX2                !
 ! R7    R(3,7)                  0.964          estimate D2E/DX2                !
 ! R8    R(4,5)                  2.0507         estimate D2E/DX2                !
 ! R9    R(5,8)                  2.0857         estimate D2E/DX2                !
 ! R10   R(5,10)                 1.9687         estimate D2E/DX2                !
 ! R11   R(5,12)                 1.9825         estimate D2E/DX2                !
 ! R12   R(5,14)                 1.955          estimate D2E/DX2                !
 ! R13   R(8,9)                  0.9657         estimate D2E/DX2                !
 ! R14   R(10,11)                0.9625         estimate D2E/DX2                !
 ! R15   R(12,13)                0.9637         estimate D2E/DX2                !
 ! R16   R(14,15)                0.9606         estimate D2E/DX2                !
 ! A1    A(2,1,3)              107.6477         estimate D2E/DX2                !
 ! A2    A(2,1,4)              118.3958         estimate D2E/DX2                !
 ! A3    A(2,1,5)              121.9245         estimate D2E/DX2                !
 ! A4    A(2,1,8)              105.5776         estimate D2E/DX2                !
 ! A5    A(3,1,4)              112.7909         estimate D2E/DX2                !
 ! A6    A(3,1,5)              130.0943         estimate D2E/DX2                !
 ! A7    A(3,1,8)              113.7977         estimate D2E/DX2                !
 ! A8    A(4,1,8)               98.3257         estimate D2E/DX2                !
 ! A9    A(1,2,6)              115.9167         estimate D2E/DX2                !
 ! A10   A(1,3,7)              114.5237         estimate D2E/DX2                !
 ! A11   A(1,4,5)               94.9087         Frozen                          !
 ! A12   A(1,5,10)             100.0023         estimate D2E/DX2                !
 ! A13   A(1,5,12)              91.7066         estimate D2E/DX2                !
 ! A14   A(1,5,14)             140.9806         estimate D2E/DX2                !
 ! A15   A(4,5,8)               74.7706         estimate D2E/DX2                !
 ! A16   A(4,5,10)             113.073          estimate D2E/DX2                !
 ! A17   A(4,5,12)             113.7489         estimate D2E/DX2                !
 ! A18   A(4,5,14)             105.0111         estimate D2E/DX2                !
 ! A19   A(8,5,10)              79.9995         estimate D2E/DX2                !
 ! A20   A(8,5,12)              70.853          estimate D2E/DX2                !
 ! A21   A(10,5,12)            114.2234         estimate D2E/DX2                !
 ! A22   A(10,5,14)            104.5069         estimate D2E/DX2                !
 ! A23   A(12,5,14)            104.9877         estimate D2E/DX2                !
 ! A24   A(1,8,9)              116.6352         estimate D2E/DX2                !
 ! A25   A(5,8,9)              114.0434         estimate D2E/DX2                !
 ! A26   A(5,10,11)            132.3504         estimate D2E/DX2                !
 ! A27   A(5,12,13)            127.3993         estimate D2E/DX2                !
 ! A28   A(5,14,15)            142.0122         estimate D2E/DX2                !
 ! A29   L(8,5,14,4,-1)        179.7817         estimate D2E/DX2                !
 ! A30   L(8,5,14,4,-2)        174.8194         estimate D2E/DX2                !
 ! D1    D(3,1,2,6)            -31.5445         estimate D2E/DX2                !
 ! D2    D(4,1,2,6)             97.8074         estimate D2E/DX2                !
 ! D3    D(5,1,2,6)            154.464          estimate D2E/DX2                !
 ! D4    D(8,1,2,6)           -153.4334         estimate D2E/DX2                !
 ! D5    D(2,1,3,7)            151.7162         estimate D2E/DX2                !
 ! D6    D(4,1,3,7)             19.2636         estimate D2E/DX2                !
 ! D7    D(5,1,3,7)            -34.953          estimate D2E/DX2                !
 ! D8    D(8,1,3,7)            -91.6497         estimate D2E/DX2                !
 ! D9    D(2,1,5,10)           143.1221         estimate D2E/DX2                !
 ! D10   D(2,1,5,12)            28.1569         estimate D2E/DX2                !
 ! D11   D(2,1,5,14)           -88.4402         estimate D2E/DX2                !
 ! D12   D(3,1,5,10)           -29.3855         estimate D2E/DX2                !
 ! D13   D(3,1,5,12)          -144.3507         estimate D2E/DX2                !
 ! D14   D(3,1,5,14)            99.0521         estimate D2E/DX2                !
 ! D15   D(2,1,8,9)             -0.7356         estimate D2E/DX2                !
 ! D16   D(3,1,8,9)           -118.5698         estimate D2E/DX2                !
 ! D17   D(4,1,8,9)            121.931          estimate D2E/DX2                !
 ! D18   D(4,5,8,9)           -123.4194         estimate D2E/DX2                !
 ! D19   D(10,5,8,9)           119.165          estimate D2E/DX2                !
 ! D20   D(12,5,8,9)            -0.9838         estimate D2E/DX2                !
 ! D21   D(9,8,14,15)          119.922          estimate D2E/DX2                !
 ! D22   D(1,5,10,11)          -52.5017         estimate D2E/DX2                !
 ! D23   D(4,5,10,11)          -88.2371         estimate D2E/DX2                !
 ! D24   D(8,5,10,11)          -19.6475         estimate D2E/DX2                !
 ! D25   D(12,5,10,11)          43.9583         estimate D2E/DX2                !
 ! D26   D(14,5,10,11)         158.1211         estimate D2E/DX2                !
 ! D27   D(1,5,12,13)         -147.0778         estimate D2E/DX2                !
 ! D28   D(4,5,12,13)         -116.9748         estimate D2E/DX2                !
 ! D29   D(8,5,12,13)         -179.8097         estimate D2E/DX2                !
 ! D30   D(10,5,12,13)         111.1544         estimate D2E/DX2                !
 ! D31   D(14,5,12,13)          -2.7244         estimate D2E/DX2                !
 ! D32   D(1,5,14,15)         -125.0923         estimate D2E/DX2                !
 ! D33   D(4,5,14,15)         -117.1581         estimate D2E/DX2                !
 ! D34   D(10,5,14,15)           2.0837         estimate D2E/DX2                !
 ! D35   D(12,5,14,15)         122.6147         estimate D2E/DX2                !
 --------------------------------------------------------------------------------
 Trust Radius=3.00D-01 FncErr=1.00D-07 GrdErr=1.00D-06 EigMax=2.50D+02 EigMin=1.00D-04
 Number of steps in this run=     91 maximum allowed number of steps=    100.
 GradGradGradGradGradGradGradGradGradGradGradGradGradGradGradGradGradGrad

                          Input orientation:                          
 ---------------------------------------------------------------------
 Center     Atomic      Atomic             Coordinates (Angstroms)
 Number     Number       Type             X           Y           Z
 ---------------------------------------------------------------------
      1         14           0       -1.906980   -0.040930   -0.131870
      2          8           0       -2.776610    1.331830   -0.368280
      3          8           0       -2.964720   -1.301380   -0.094090
      4          8           0       -0.625390   -0.321600   -1.096590
      5         40           0        0.772230    0.017820    0.365140
      6          1           0       -3.578330    1.237010   -0.893180
      7          1           0       -2.595050   -2.142800   -0.385010
      8          8           0       -1.073460    0.194030    1.320350
      9          1           0       -1.207450    1.041080    1.764250
     10          8           0        0.912970   -1.461480    1.656440
     11          1           0        0.445960   -1.653540    2.475800
     12          8           0        0.638800    1.812900    1.196000
     13          1           0        1.297680    2.516020    1.179400
     14          8           0        2.490390    0.018850   -0.567540
     15          1           0        3.325800   -0.452830   -0.616010
 ---------------------------------------------------------------------
                    Distance matrix (angstroms):
                    1          2          3          4          5
     1  Si   0.000000
     2  O    1.642138   0.000000
     3  O    1.645897   2.654121   0.000000
     4  O    1.628476   2.809273   2.727167   0.000000
     5  Zr   2.725553   3.854710   3.989483   2.050659   0.000000
     6  H    2.237439   0.962946   2.731023   3.345220   4.690114
     7  H    2.226068   3.479411   0.963991   2.775370   4.070575
     8  O    1.690830   2.654577   2.795310   2.511621   2.085677
     9  H    2.292457   2.663547   3.468219   3.221816   2.631293
    10  O    3.628792   5.051245   4.257519   3.353364   1.968652
    11  H    3.864813   5.233181   4.284984   3.960281   2.711970
    12  O    3.417736   3.787272   4.934413   3.377904   1.982535
    13  H    4.304331   4.516355   5.861943   4.114659   2.679575
    14  O    4.419304   5.431842   5.632529   3.178661   1.954985
    15  H    5.271247   6.362844   6.368915   3.982472   2.775768
                    6          7          8          9         10
     6  H    0.000000
     7  H    3.556430   0.000000
     8  O    3.501699   3.268679   0.000000
     9  H    3.566706   4.084341   0.965657   0.000000
    10  O    5.827022   4.115570   2.607599   3.281861   0.000000
    11  H    5.991679   4.203731   2.656542   3.240532   0.962464
    12  O    4.741361   5.348359   2.359669   2.080205   3.317942
    13  H    5.450406   6.269396   3.321718   2.965329   4.024435
    14  O    6.198332   5.528811   4.036811   4.489568   3.102534
    15  H    7.113325   6.161641   4.849887   5.333644   3.464557
                   11         12         13         14         15
    11  H    0.000000
    12  O    3.700173   0.000000
    13  H    4.448743   0.963730   0.000000
    14  O    4.029702   3.123632   3.272646   0.000000
    15  H    4.392547   3.954350   4.018811   0.960594   0.000000
 Stoichiometry    H6O7SiZr
 Framework group  C1[X(H6O7SiZr)]
 Deg. of freedom    39
 Full point group                 C1      NOp   1
 Largest Abelian subgroup         C1      NOp   1
 Largest concise Abelian subgroup C1      NOp   1
                         Standard orientation:                         
 ---------------------------------------------------------------------
 Center     Atomic      Atomic             Coordinates (Angstroms)
 Number     Number       Type             X           Y           Z
 ---------------------------------------------------------------------
      1         14           0       -1.731957   -0.037073   -0.162268
      2          8           0       -2.606302    1.350501   -0.244579
      3          8           0       -2.791405   -1.285057    0.008261
      4          8           0       -0.609766   -0.314509   -1.309286
      5         40           0        0.991726   -0.020593   -0.062675
      6          1           0       -3.477563    1.275662   -0.647778
      7          1           0       -2.480883   -2.125099   -0.348369
      8          8           0       -0.691369    0.159458    1.155858
      9          1           0       -0.746292    0.999287    1.629318
     10          8           0        1.298002   -1.526316    1.168010
     11          1           0        0.953199   -1.728570    2.043533
     12          8           0        1.008129    1.759489    0.809956
     13          1           0        1.667867    2.454731    0.709158
     14          8           0        2.554616   -0.022337   -1.237128
     15          1           0        3.366810   -0.503114   -1.415833
 ---------------------------------------------------------------------
 Rotational constants (GHZ):           1.8144543           0.7038863           0.6637425
 General basis read from cards:  (5D, 7F)
 ======================================================================================================
                                       Pseudopotential Parameters
 ======================================================================================================
  Center     Atomic      Valence      Angular      Power
  Number     Number     Electrons     Momentum     of R      Exponent        Coefficient   SO-Coeffient
 ======================================================================================================
    1         14
                                   No pseudopotential on this center.
    2          8
                                   No pseudopotential on this center.
    3          8
                                   No pseudopotential on this center.
    4          8
                                   No pseudopotential on this center.
    5         40           12
                                      F and up 
                                                     0      645.9321873       -0.04258430    0.00000000
                                                     1      134.7547401      -20.22224090    0.00000000
                                                     2       42.3074619     -101.86951720    0.00000000
                                                     2       12.0003227      -41.61957840    0.00000000
                                                     2        4.1260454       -4.69861600    0.00000000
                                      S - F
                                                     0      117.6251862        2.79105590    0.00000000
                                                     1       22.9646089       41.94894590    0.00000000
                                                     2        4.5225298       67.72718660    0.00000000
                                      P - F
                                                     0       47.1953145        4.99111440    0.00000000
                                                     1       48.0356033       20.71931720    0.00000000
                                                     2       19.4541456      195.58677580    0.00000000
                                                     2        4.0512875       48.28771760    0.00000000
                                      D - F
                                                     0       79.9073983        3.00492260    0.00000000
                                                     1       45.8263798       25.93779890    0.00000000
                                                     2       26.9903522      125.12449340    0.00000000
                                                     2        9.6835718       70.76340220    0.00000000
                                                     2        2.7995666       15.04928220    0.00000000
    6          1
                                   No pseudopotential on this center.
    7          1
                                   No pseudopotential on this center.
    8          8
                                   No pseudopotential on this center.
    9          1
                                   No pseudopotential on this center.
   10          8
                                   No pseudopotential on this center.
   11          1
                                   No pseudopotential on this center.
   12          8
                                   No pseudopotential on this center.
   13          1
                                   No pseudopotential on this center.
   14          8
                                   No pseudopotential on this center.
   15          1
                                   No pseudopotential on this center.
 ======================================================================================================
 There are   178 symmetry adapted cartesian basis functions of A   symmetry.
 There are   168 symmetry adapted basis functions of A   symmetry.
   168 basis functions,   339 primitive gaussians,   178 cartesian basis functions
    44 alpha electrons       44 beta electrons
       nuclear repulsion energy       687.7592052244 Hartrees.
 NAtoms=   15 NActive=   15 NUniq=   15 SFac= 1.00D+00 NAtFMM=   60 NAOKFM=F Big=F
 Integral buffers will be    131072 words long.
 Raffenetti 2 integral format.
 Two-electron integral symmetry is turned on.
 One-electron integrals computed using PRISM.
   1 Symmetry operations used in ECPInt.
 ECPInt:  NShTT=    1770 NPrTT=   10201 LenC2=    1690 LenP2D=    6913.
 LDataN:  DoStor=T MaxTD1= 5 Len=  102
 NBasis=   168 RedAO= T EigKep=  6.17D-03  NBF=   168
 NBsUse=   168 1.00D-06 EigRej= -1.00D+00 NBFU=   168
 Defaulting to unpruned grid for atomic number  40.
 ExpMin= 2.43D-02 ExpMax= 1.61D+04 ExpMxC= 2.43D+03 IAcc=3 IRadAn=         5 AccDes= 0.00D+00
 Harris functional with IExCor=  402 and IRadAn=       5 diagonalized for initial guess.
 HarFok:  IExCor=  402 AccDes= 0.00D+00 IRadAn=         5 IDoV= 1 UseB2=F ITyADJ=14
 ICtDFT=  3500011 ScaDFX=  1.000000  1.000000  1.000000  1.000000
 Defaulting to unpruned grid for atomic number  40.
 FoFCou: FMM=F IPFlag=           0 FMFlag=      100000 FMFlg1=           0
         NFxFlg=           0 DoJE=T BraDBF=F KetDBF=T FulRan=T
         wScrn=  0.000000 ICntrl=       500 IOpCl=  0 I1Cent=   200000004 NGrid=           0
         NMat0=    1 NMatS0=      1 NMatT0=    0 NMatD0=    1 NMtDS0=    0 NMtDT0=    0
 Petite list used in FoFCou.
 Requested convergence on RMS density matrix=1.00D-08 within 128 cycles.
 Requested convergence on MAX density matrix=1.00D-06.
 Requested convergence on             energy=1.00D-06.
 No special actions if energy rises.
 Defaulting to unpruned grid for atomic number  40.
 Defaulting to unpruned grid for atomic number  40.
 Defaulting to unpruned grid for atomic number  40.
 Defaulting to unpruned grid for atomic number  40.
 Defaulting to unpruned grid for atomic number  40.
 Defaulting to unpruned grid for atomic number  40.
 Defaulting to unpruned grid for atomic number  40.
 Defaulting to unpruned grid for atomic number  40.
 Defaulting to unpruned grid for atomic number  40.
 Defaulting to unpruned grid for atomic number  40.
 Defaulting to unpruned grid for atomic number  40.
 Defaulting to unpruned grid for atomic number  40.
 Defaulting to unpruned grid for atomic number  40.
 Defaulting to unpruned grid for atomic number  40.
 Defaulting to unpruned grid for atomic number  40.
 Defaulting to unpruned grid for atomic number  40.
 SCF Done:  E(RB3LYP) =  -866.657201930     A.U. after   15 cycles
            NFock= 15  Conv=0.21D-08     -V/T= 2.0439

 **********************************************************************

            Population analysis using the SCF Density.

 **********************************************************************

 Orbital symmetries:
       Occupied  (A) (A) (A) (A) (A) (A) (A) (A) (A) (A) (A) (A)
                 (A) (A) (A) (A) (A) (A) (A) (A) (A) (A) (A) (A)
                 (A) (A) (A) (A) (A) (A) (A) (A) (A) (A) (A) (A)
                 (A) (A) (A) (A) (A) (A) (A) (A)
       Virtual   (A) (A) (A) (A) (A) (A) (A) (A) (A) (A) (A) (A)
                 (A) (A) (A) (A) (A) (A) (A) (A) (A) (A) (A) (A)
                 (A) (A) (A) (A) (A) (A) (A) (A) (A) (A) (A) (A)
                 (A) (A) (A) (A) (A) (A) (A) (A) (A) (A) (A) (A)
                 (A) (A) (A) (A) (A) (A) (A) (A) (A) (A) (A) (A)
                 (A) (A) (A) (A) (A) (A) (A) (A) (A) (A) (A) (A)
                 (A) (A) (A) (A) (A) (A) (A) (A) (A) (A) (A) (A)
                 (A) (A) (A) (A) (A) (A) (A) (A) (A) (A) (A) (A)
                 (A) (A) (A) (A) (A) (A) (A) (A) (A) (A) (A) (A)
                 (A) (A) (A) (A) (A) (A) (A) (A) (A) (A) (A) (A)
                 (A) (A) (A) (A)
 The electronic state is 1-A.
 Alpha  occ. eigenvalues --  -66.20931 -19.19010 -19.16180 -19.16168 -19.13053
 Alpha  occ. eigenvalues --  -19.12568 -19.12204 -19.12018  -5.35415  -3.71448
 Alpha  occ. eigenvalues --   -3.71310  -3.71241  -2.04458  -1.26481  -1.25159
 Alpha  occ. eigenvalues --   -1.24913  -1.05943  -1.02497  -1.00789  -0.94748
 Alpha  occ. eigenvalues --   -0.93786  -0.93448  -0.93189  -0.60425  -0.55948
 Alpha  occ. eigenvalues --   -0.53259  -0.48555  -0.46963  -0.45832  -0.43553
 Alpha  occ. eigenvalues --   -0.43108  -0.41279  -0.38733  -0.36767  -0.35271
 Alpha  occ. eigenvalues --   -0.35096  -0.34053  -0.33128  -0.32319  -0.31289
 Alpha  occ. eigenvalues --   -0.30676  -0.30225  -0.29423  -0.28967
 Alpha virt. eigenvalues --   -0.01009  -0.00923  -0.00353   0.00781   0.01722
 Alpha virt. eigenvalues --    0.02545   0.03798   0.03932   0.07385   0.08110
 Alpha virt. eigenvalues --    0.09857   0.13730   0.14509   0.15905   0.15988
 Alpha virt. eigenvalues --    0.17193   0.17677   0.18756   0.19896   0.23518
 Alpha virt. eigenvalues --    0.24110   0.24310   0.25122   0.26356   0.28953
 Alpha virt. eigenvalues --    0.30365   0.31680   0.33661   0.35599   0.38912
 Alpha virt. eigenvalues --    0.42739   0.54283   0.60573   0.76516   0.78877
 Alpha virt. eigenvalues --    0.80603   0.84511   0.86652   0.88105   0.88349
 Alpha virt. eigenvalues --    0.89948   0.90357   0.91571   0.93992   0.94825
 Alpha virt. eigenvalues --    0.96375   0.97521   1.00129   1.02168   1.03395
 Alpha virt. eigenvalues --    1.06357   1.07814   1.08257   1.10747   1.11626
 Alpha virt. eigenvalues --    1.12664   1.15614   1.17045   1.19027   1.20996
 Alpha virt. eigenvalues --    1.24977   1.28455   1.33992   1.44937   1.47828
 Alpha virt. eigenvalues --    1.48264   1.48934   1.53875   1.56094   1.57333
 Alpha virt. eigenvalues --    1.57828   1.59894   1.59969   1.61418   1.63790
 Alpha virt. eigenvalues --    1.65450   1.67357   1.69111   1.70640   1.72395
 Alpha virt. eigenvalues --    1.73443   1.77889   1.79984   1.81476   1.82432
 Alpha virt. eigenvalues --    1.83805   1.84123   1.85445   1.88023   1.90116
 Alpha virt. eigenvalues --    1.91871   1.93227   2.00470   2.07115   2.12905
 Alpha virt. eigenvalues --    2.32087   2.34853   2.35722   2.38544   2.39966
 Alpha virt. eigenvalues --    2.41290   2.43906   2.54495   2.58726   2.61250
 Alpha virt. eigenvalues --    2.62506   2.63053   2.64770   2.65206   2.65803
 Alpha virt. eigenvalues --    2.65991   2.66148   2.66438   2.67334   2.70565
 Alpha virt. eigenvalues --    2.76507   2.80880   3.40450   3.41727   3.43398
 Alpha virt. eigenvalues --    3.44419   3.45961   3.49331   5.79479
          Condensed to atoms (all electrons):
               1          2          3          4          5          6
     1  Si  11.576010   0.384402   0.383350   0.339483  -0.096101  -0.021837
     2  O    0.384402   7.946517  -0.020087  -0.010809   0.010430   0.304784
     3  O    0.383350  -0.020087   7.950788  -0.017190   0.008562  -0.000683
     4  O    0.339483  -0.010809  -0.017190   8.249751   0.188876  -0.000315
     5  Zr  -0.096101   0.010430   0.008562   0.188876   9.899559  -0.000925
     6  H   -0.021837   0.304784  -0.000683  -0.000315  -0.000925   0.375873
     7  H   -0.017135   0.000378   0.301728   0.001143  -0.003265  -0.000060
     8  O    0.250376  -0.017834  -0.011971  -0.034886  -0.011858   0.000584
     9  H   -0.011688   0.001781  -0.000440   0.000087  -0.000904  -0.000034
    10  O   -0.011058  -0.000001  -0.000029  -0.000047   0.238987   0.000000
    11  H    0.000007  -0.000000  -0.000022  -0.000097  -0.019742   0.000000
    12  O   -0.016887  -0.000046  -0.000001   0.000163   0.229064   0.000003
    13  H    0.000804  -0.000005   0.000000  -0.000018  -0.016312  -0.000000
    14  O   -0.002376  -0.000000  -0.000000   0.000737   0.209649   0.000000
    15  H    0.000068  -0.000000  -0.000000  -0.000061  -0.016043  -0.000000
               7          8          9         10         11         12
     1  Si  -0.017135   0.250376  -0.011688  -0.011058   0.000007  -0.016887
     2  O    0.000378  -0.017834   0.001781  -0.000001  -0.000000  -0.000046
     3  O    0.301728  -0.011971  -0.000440  -0.000029  -0.000022  -0.000001
     4  O    0.001143  -0.034886   0.000087  -0.000047  -0.000097   0.000163
     5  Zr  -0.003265  -0.011858  -0.000904   0.238987  -0.019742   0.229064
     6  H   -0.000060   0.000584  -0.000034   0.000000   0.000000   0.000003
     7  H    0.379272  -0.000103   0.000050  -0.000022  -0.000002  -0.000000
     8  O   -0.000103   8.246930   0.300062  -0.018507  -0.001633  -0.040291
     9  H    0.000050   0.300062   0.312962  -0.000620  -0.000233   0.008924
    10  O   -0.000022  -0.018507  -0.000620   8.180274   0.294722   0.000532
    11  H   -0.000002  -0.001633  -0.000233   0.294722   0.401535  -0.000331
    12  O   -0.000000  -0.040291   0.008924   0.000532  -0.000331   8.247309
    13  H    0.000000   0.001376   0.000038  -0.000072  -0.000001   0.293231
    14  O   -0.000000  -0.000726   0.000031   0.001025   0.000020   0.000825
    15  H    0.000000   0.000017  -0.000000  -0.000417   0.000003  -0.000082
              13         14         15
     1  Si   0.000804  -0.002376   0.000068
     2  O   -0.000005  -0.000000  -0.000000
     3  O    0.000000  -0.000000  -0.000000
     4  O   -0.000018   0.000737  -0.000061
     5  Zr  -0.016312   0.209649  -0.016043
     6  H   -0.000000   0.000000  -0.000000
     7  H    0.000000  -0.000000   0.000000
     8  O    0.001376  -0.000726   0.000017
     9  H    0.000038   0.000031  -0.000000
    10  O   -0.000072   0.001025  -0.000417
    11  H   -0.000001   0.000020   0.000003
    12  O    0.293231   0.000825  -0.000082
    13  H    0.397577  -0.001444   0.000014
    14  O   -0.001444   8.188106   0.294651
    15  H    0.000014   0.294651   0.396106
 Mulliken charges:
               1
     1  Si   1.242579
     2  O   -0.599511
     3  O   -0.594005
     4  O   -0.716814
     5  Zr   1.380024
     6  H    0.342611
     7  H    0.338015
     8  O   -0.661537
     9  H    0.389984
    10  O   -0.684768
    11  H    0.325774
    12  O   -0.722412
    13  H    0.324811
    14  O   -0.690498
    15  H    0.325745
 Sum of Mulliken charges =  -0.00000
 Mulliken charges with hydrogens summed into heavy atoms:
               1
     1  Si   1.242579
     2  O   -0.256900
     3  O   -0.255990
     4  O   -0.716814
     5  Zr   1.380024
     8  O   -0.271553
    10  O   -0.358993
    12  O   -0.397601
    14  O   -0.364753
 Electronic spatial extent (au):  <R**2>=           1715.6502
 Charge=              0.0000 electrons
 Dipole moment (field-independent basis, Debye):
    X=             -0.9411    Y=             -0.0600    Z=              1.2190  Tot=              1.5412
 Quadrupole moment (field-independent basis, Debye-Ang):
   XX=            -64.7171   YY=            -69.7823   ZZ=            -73.4276
   XY=              1.5756   XZ=              1.7960   YZ=              1.6568
 Traceless Quadrupole moment (field-independent basis, Debye-Ang):
   XX=              4.5919   YY=             -0.4733   ZZ=             -4.1186
   XY=              1.5756   XZ=              1.7960   YZ=              1.6568
 Octapole moment (field-independent basis, Debye-Ang**2):
  XXX=             26.6280  YYY=             -3.8947  ZZZ=             21.2773  XYY=              6.0129
  XXY=             11.1135  XXZ=            -24.3008  XZZ=              6.1371  YZZ=             -4.0322
  YYZ=             -0.1004  XYZ=              4.9682
 Hexadecapole moment (field-independent basis, Debye-Ang**3):
 XXXX=          -1109.9771 YYYY=           -375.9533 ZZZZ=           -314.7940 XXXY=            -77.2157
 XXXZ=             16.8781 YYYX=             73.8022 YYYZ=              9.8513 ZZZX=             -0.8878
 ZZZY=            -14.0938 XXYY=           -254.2888 XXZZ=           -255.6806 YYZZ=           -110.1332
 XXYZ=             23.7814 YYXZ=             10.3525 ZZXY=            -19.2502
 N-N= 6.877592052244D+02 E-N=-3.411763434793D+03  KE= 8.302127277338D+02
   1 Symmetry operations used in ECPInt.
 ECPInt:  NShTT=    1770 NPrTT=   10201 LenC2=    1690 LenP2D=    6913.
 LDataN:  DoStor=T MaxTD1= 6 Len=  172
 Calling FoFJK, ICntrl=      2127 FMM=F ISym2X=0 I1Cent= 0 IOpClX= 0 NMat=1 NMatS=1 NMatT=0.
 Defaulting to unpruned grid for atomic number  40.
 Defaulting to unpruned grid for atomic number  40.
 Defaulting to unpruned grid for atomic number  40.
 Defaulting to unpruned grid for atomic number  40.
 Defaulting to unpruned grid for atomic number  40.
 Defaulting to unpruned grid for atomic number  40.
 Defaulting to unpruned grid for atomic number  40.
 Defaulting to unpruned grid for atomic number  40.
 Defaulting to unpruned grid for atomic number  40.
 Defaulting to unpruned grid for atomic number  40.
 Defaulting to unpruned grid for atomic number  40.
 Defaulting to unpruned grid for atomic number  40.
 Defaulting to unpruned grid for atomic number  40.
 Defaulting to unpruned grid for atomic number  40.
 Defaulting to unpruned grid for atomic number  40.
 Defaulting to unpruned grid for atomic number  40.
 ***** Axes restored to original set *****
 -------------------------------------------------------------------
 Center     Atomic                   Forces (Hartrees/Bohr)
 Number     Number              X              Y              Z
 -------------------------------------------------------------------
      1       14          -0.031656187   -0.005289266   -0.024415099
      2        8           0.001914059   -0.001166207    0.002988733
      3        8           0.000710501    0.001491722    0.002126279
      4        8          -0.009344754    0.002571311    0.012379014
      5       40           0.074823155   -0.010896338   -0.015204639
      6        1          -0.000146448   -0.000315417    0.000085971
      7        1           0.000185682   -0.000261175   -0.000112379
      8        8          -0.066312210   -0.002872175    0.022079563
      9        1           0.001393947    0.005318213    0.002273806
     10        8           0.008450041   -0.008866406    0.000190431
     11        1          -0.000227922    0.001539679   -0.001518017
     12        8           0.008191404    0.020439901    0.004693096
     13        1           0.001492139   -0.000924369   -0.001354817
     14        8           0.009437119   -0.002780043   -0.002594791
     15        1           0.001089476    0.002010570   -0.001617150
 -------------------------------------------------------------------
 Cartesian Forces:  Max     0.074823155 RMS     0.017352341

 GradGradGradGradGradGradGradGradGradGradGradGradGradGradGradGradGradGrad
 Berny optimization.
 FormGI is forming the generalized inverse of G from B-inverse, IUseBI=4.
 Internal  Forces:  Max     0.062088314 RMS     0.009430372
 Search for a local minimum.
 Step number   1 out of a maximum of   91
 All quantities printed in internal units (Hartrees-Bohrs-Radians)
 Mixed Optimization -- RFO/linear search
 Second derivative matrix not updated -- first step.
 ITU=  0
     Eigenvalues ---    0.00230   0.00230   0.00230   0.01948   0.02304
     Eigenvalues ---    0.03732   0.03782   0.04823   0.05146   0.06605
     Eigenvalues ---    0.09391   0.11054   0.13304   0.13970   0.14166
     Eigenvalues ---    0.14604   0.15313   0.15983   0.16000   0.16000
     Eigenvalues ---    0.16000   0.16000   0.18952   0.19683   0.20440
     Eigenvalues ---    0.20680   0.21012   0.22313   0.33047   0.35349
     Eigenvalues ---    0.43277   0.43863   0.54274   0.54624   0.54679
     Eigenvalues ---    0.54844   0.54947   0.553461000.000001000.00000
     Eigenvalues --- 1000.000001000.000001000.000001000.000001000.00000
     Eigenvalues --- 1000.000001000.000001000.000001000.000001000.00000
     Eigenvalues --- 1000.000001000.000001000.000001000.000001000.00000
     Eigenvalues --- 1000.000001000.000001000.000001000.000001000.00000
     Eigenvalues --- 1000.000001000.000001000.000001000.000001000.00000
     Eigenvalues --- 1000.000001000.000001000.000001000.000001000.00000
     Eigenvalues --- 1000.000001000.000001000.000001000.000001000.00000
     Eigenvalues --- 1000.000001000.000001000.000001000.000001000.00000
     Eigenvalues --- 1000.00000
 RFO step:  Lambda=-3.28222491D-02 EMin= 2.30000000D-03
 Linear search not attempted -- first point.
 Maximum step size (   0.300) exceeded in Quadratic search.
    -- Step size scaled by   0.729
 Iteration  1 RMS(Cart)=  0.05041469 RMS(Int)=  0.00307848
 Iteration  2 RMS(Cart)=  0.00393010 RMS(Int)=  0.00025049
 Iteration  3 RMS(Cart)=  0.00000858 RMS(Int)=  0.00025039
 Iteration  4 RMS(Cart)=  0.00000000 RMS(Int)=  0.00025039
 Iteration  1 RMS(Cart)=  0.00000753 RMS(Int)=  0.00001450
 Iteration  2 RMS(Cart)=  0.00000623 RMS(Int)=  0.00001550
 Iteration  3 RMS(Cart)=  0.00000515 RMS(Int)=  0.00001763
 Iteration  4 RMS(Cart)=  0.00000426 RMS(Int)=  0.00002000
 Iteration  5 RMS(Cart)=  0.00000353 RMS(Int)=  0.00002225
 Iteration  6 RMS(Cart)=  0.00000292 RMS(Int)=  0.00002425
 Iteration  7 RMS(Cart)=  0.00000241 RMS(Int)=  0.00002599
 Iteration  8 RMS(Cart)=  0.00000200 RMS(Int)=  0.00002746
 Iteration  9 RMS(Cart)=  0.00000165 RMS(Int)=  0.00002871
 Iteration 10 RMS(Cart)=  0.00000137 RMS(Int)=  0.00002975
 Iteration 11 RMS(Cart)=  0.00000113 RMS(Int)=  0.00003062
 Iteration 12 RMS(Cart)=  0.00000093 RMS(Int)=  0.00003135
 Variable       Old X    -DE/DX   Delta X   Delta X   Delta X     New X
                                 (Linear)    (Quad)   (Total)
    R1        3.10319  -0.00262   0.00000  -0.00405  -0.00405   3.09914
    R2        3.11029  -0.00147   0.00000  -0.00230  -0.00230   3.10799
    R3        3.07737  -0.00556   0.00000   0.02399   0.02380   3.10117
    R4        5.15055   0.03440   0.00000   0.09367   0.09362   5.24417
    R5        3.19520   0.00200   0.00000  -0.00402  -0.00401   3.19120
    R6        1.81970   0.00011   0.00000   0.00013   0.00013   1.81984
    R7        1.82168   0.00033   0.00000   0.00042   0.00042   1.82210
    R8        3.87518   0.00373   0.00000   0.09681   0.09676   3.97195
    R9        3.94136   0.06209   0.00000   0.23031   0.23054   4.17190
   R10        3.72021   0.00522   0.00000   0.01658   0.01658   3.73679
   R11        3.74645   0.01842   0.00000   0.06039   0.06039   3.80684
   R12        3.69439   0.01124   0.00000   0.03460   0.03459   3.72898
   R13        1.82483   0.00552   0.00000   0.00699   0.00699   1.83182
   R14        1.81879  -0.00149   0.00000  -0.00187  -0.00187   1.81693
   R15        1.82119   0.00037   0.00000   0.00046   0.00046   1.82165
   R16        1.81526   0.00004   0.00000   0.00005   0.00005   1.81531
    A1        1.87881   0.00138   0.00000  -0.00211  -0.00247   1.87633
    A2        2.06640   0.00211   0.00000  -0.00090  -0.00087   2.06553
    A3        2.12798  -0.00153   0.00000  -0.00487  -0.00485   2.12313
    A4        1.84268  -0.00416   0.00000  -0.01945  -0.01953   1.82314
    A5        1.96857   0.00309   0.00000  -0.00637  -0.00610   1.96247
    A6        2.27057   0.00033   0.00000   0.00738   0.00772   2.27829
    A7        1.98615  -0.00659   0.00000  -0.02709  -0.02738   1.95877
    A8        1.71611   0.00287   0.00000   0.05578   0.05556   1.77167
    A9        2.02313  -0.00050   0.00000  -0.00188  -0.00188   2.02125
   A10        1.99882  -0.00012   0.00000  -0.00046  -0.00046   1.99836
   A11        1.65647   0.01521   0.00000   0.00000  -0.00001   1.65645
   A12        1.74537   0.00427   0.00000   0.01863   0.01812   1.76349
   A13        1.60058   0.00818   0.00000   0.02834   0.02811   1.62869
   A14        2.46058  -0.00174   0.00000  -0.00998  -0.00978   2.45079
   A15        1.30499  -0.01199   0.00000  -0.02274  -0.02275   1.28224
   A16        1.97350  -0.00167   0.00000  -0.00010  -0.00035   1.97314
   A17        1.98529   0.00141   0.00000   0.01274   0.01253   1.99782
   A18        1.83279   0.00556   0.00000  -0.00222  -0.00217   1.83062
   A19        1.39625   0.00703   0.00000   0.02631   0.02627   1.42252
   A20        1.23662   0.01302   0.00000   0.04828   0.04787   1.28449
   A21        1.99357   0.00685   0.00000   0.02954   0.02871   2.02228
   A22        1.82399  -0.00486   0.00000  -0.02129  -0.02115   1.80284
   A23        1.83238  -0.00875   0.00000  -0.02841  -0.02828   1.80410
   A24        2.03567   0.00275   0.00000   0.00909   0.00908   2.04475
   A25        1.99043  -0.00042   0.00000  -0.00359  -0.00347   1.98696
   A26        2.30995  -0.00287   0.00000  -0.01084  -0.01084   2.29911
   A27        2.22354  -0.00396   0.00000  -0.01498  -0.01498   2.20855
   A28        2.47858   0.00518   0.00000   0.01906   0.01908   2.49766
   A29        3.13778  -0.00643   0.00000  -0.02497  -0.02492   3.11286
   A30        3.05117   0.00087   0.00000   0.00806   0.00775   3.05892
    D1       -0.55056  -0.00373   0.00000  -0.00603  -0.00600  -0.55655
    D2        1.70706   0.00380   0.00000  -0.01787  -0.01772   1.68934
    D3        2.69590  -0.00530   0.00000  -0.01013  -0.01011   2.68579
    D4       -2.67792   0.00557   0.00000   0.03755   0.03735  -2.64057
    D5        2.64795   0.00325   0.00000   0.00733   0.00720   2.65515
    D6        0.33621  -0.00332   0.00000   0.01555   0.01539   0.35160
    D7       -0.61004   0.00486   0.00000   0.01080   0.01069  -0.59935
    D8       -1.59959  -0.00480   0.00000  -0.03371  -0.03330  -1.63289
    D9        2.49795   0.00517   0.00000   0.01698   0.01705   2.51501
   D10        0.49143  -0.00403   0.00000  -0.02125  -0.02137   0.47006
   D11       -1.54357   0.00071   0.00000  -0.00552  -0.00562  -1.54919
   D12       -0.51287   0.00318   0.00000   0.01277   0.01284  -0.50003
   D13       -2.51940  -0.00602   0.00000  -0.02547  -0.02558  -2.54498
   D14        1.72879  -0.00128   0.00000  -0.00973  -0.00983   1.71896
   D15       -0.01284  -0.00313   0.00000  -0.02376  -0.02346  -0.03629
   D16       -2.06943   0.00149   0.00000   0.00623   0.00567  -2.06376
   D17        2.12810  -0.00107   0.00000  -0.00789  -0.00777   2.12033
   D18       -2.15407  -0.00147   0.00000  -0.00090  -0.00115  -2.15522
   D19        2.07982  -0.00093   0.00000   0.00196   0.00235   2.08217
   D20       -0.01717   0.00013   0.00000   0.00132   0.00051  -0.01666
   D21        2.09303   0.00325   0.00000   0.01349   0.01413   2.10716
   D22       -0.91633  -0.00340   0.00000  -0.00899  -0.00926  -0.92559
   D23       -1.54003   0.00221   0.00000  -0.00938  -0.00939  -1.54942
   D24       -0.34291  -0.00720   0.00000  -0.02150  -0.02147  -0.36438
   D25        0.76722   0.00936   0.00000   0.03831   0.03881   0.80603
   D26        2.75973  -0.00077   0.00000   0.00561   0.00536   2.76510
   D27       -2.56699   0.00228   0.00000   0.00793   0.00813  -2.55886
   D28       -2.04160  -0.00136   0.00000   0.01244   0.01270  -2.02890
   D29       -3.13827   0.00578   0.00000   0.01633   0.01642  -3.12185
   D30        1.94001  -0.00710   0.00000  -0.02949  -0.03017   1.90984
   D31       -0.04755   0.00071   0.00000  -0.00109  -0.00095  -0.04850
   D32       -2.18327  -0.00026   0.00000  -0.00276  -0.00285  -2.18613
   D33       -2.04479  -0.00067   0.00000  -0.00398  -0.00417  -2.04896
   D34        0.03637  -0.00227   0.00000  -0.01472  -0.01485   0.02152
   D35        2.14003  -0.00078   0.00000  -0.00416  -0.00442   2.13561
         Item               Value     Threshold  Converged?
 Maximum Force            0.056416     0.000450     NO 
 RMS     Force            0.008576     0.000300     NO 
 Maximum Displacement     0.235164     0.001800     NO 
 RMS     Displacement     0.053538     0.001200     NO 
 Predicted change in Energy=-1.686418D-02
 GradGradGradGradGradGradGradGradGradGradGradGradGradGradGradGradGradGrad

                          Input orientation:                          
 ---------------------------------------------------------------------
 Center     Atomic      Atomic             Coordinates (Angstroms)
 Number     Number       Type             X           Y           Z
 ---------------------------------------------------------------------
      1         14           0       -1.933515   -0.044934   -0.137045
      2          8           0       -2.796356    1.328715   -0.378246
      3          8           0       -2.996928   -1.299342   -0.113043
      4          8           0       -0.643642   -0.335646   -1.109065
      5         40           0        0.791243    0.019925    0.385093
      6          1           0       -3.590173    1.236311   -0.915571
      7          1           0       -2.626371   -2.143110   -0.396679
      8          8           0       -1.183426    0.185412    1.358297
      9          1           0       -1.331893    1.034585    1.801593
     10          8           0        0.968019   -1.479978    1.661514
     11          1           0        0.508910   -1.679157    2.482479
     12          8           0        0.710295    1.861196    1.198325
     13          1           0        1.394137    2.539117    1.153232
     14          8           0        2.521968    0.015526   -0.562774
     15          1           0        3.363571   -0.443641   -0.623300
 ---------------------------------------------------------------------
                    Distance matrix (angstroms):
                    1          2          3          4          5
     1  Si   0.000000
     2  O    1.639996   0.000000
     3  O    1.644677   2.649009   0.000000
     4  O    1.641070   2.817512   2.731067   0.000000
     5  Zr   2.775093   3.894417   4.042134   2.101864   0.000000
     6  H    2.234325   0.963017   2.724982   3.345225   4.729496
     7  H    2.224815   3.476033   0.964213   2.775903   4.119462
     8  O    1.688710   2.631401   2.767332   2.578904   2.207675
     9  H    2.299050   2.642511   3.447520   3.289856   2.746583
    10  O    3.703116   5.120537   4.347699   3.403388   1.977425
    11  H    3.936754   5.306207   4.378572   4.004071   2.713968
    12  O    3.522255   3.881458   5.045017   3.461692   2.014493
    13  H    4.406291   4.622849   5.968138   4.187456   2.701823
    14  O    4.476185   5.481157   5.691164   3.231538   1.973292
    15  H    5.334279   6.414515   6.438054   4.037993   2.801539
                    6          7          8          9         10
     6  H    0.000000
     7  H    3.552274   0.000000
     8  O    3.473802   3.253313   0.000000
     9  H    3.538856   4.075024   0.969355   0.000000
    10  O    5.898873   4.194704   2.737550   3.410608   0.000000
    11  H    6.070352   4.281914   2.757608   3.349113   0.961477
    12  O    4.832501   5.450858   2.533777   2.284240   3.382959
    13  H    5.551630   6.363172   3.496542   3.180445   4.073457
    14  O    6.242840   5.585041   4.177239   4.634756   3.098185
    15  H    7.159764   6.230486   4.999762   5.487499   3.468867
                   11         12         13         14         15
    11  H    0.000000
    12  O    3.771433   0.000000
    13  H    4.510472   0.963976   0.000000
    14  O    4.024664   3.128918   3.253488   0.000000
    15  H    4.395618   3.958594   3.991438   0.960621   0.000000
 Stoichiometry    H6O7SiZr
 Framework group  C1[X(H6O7SiZr)]
 Deg. of freedom    39
 Full point group                 C1      NOp   1
 Largest Abelian subgroup         C1      NOp   1
 Largest concise Abelian subgroup C1      NOp   1
                         Standard orientation:                         
 ---------------------------------------------------------------------
 Center     Atomic      Atomic             Coordinates (Angstroms)
 Number     Number       Type             X           Y           Z
 ---------------------------------------------------------------------
      1         14           0       -1.762624   -0.035996   -0.165108
      2          8           0       -2.626167    1.354807   -0.262805
      3          8           0       -2.833664   -1.272351    0.005956
      4          8           0       -0.637412   -0.337334   -1.321051
      5         40           0        1.010228   -0.023470   -0.054322
      6          1           0       -3.492695    1.282113   -0.676625
      7          1           0       -2.525144   -2.118961   -0.337226
      8          8           0       -0.794174    0.164289    1.203735
      9          1           0       -0.859252    1.010686    1.671738
     10          8           0        1.347222   -1.540800    1.168115
     11          1           0        1.011819   -1.741619    2.046531
     12          8           0        1.085344    1.809396    0.778227
     13          1           0        1.767292    2.476077    0.637751
     14          8           0        2.580202   -0.046324   -1.249538
     15          1           0        3.394771   -0.518992   -1.438893
 ---------------------------------------------------------------------
 Rotational constants (GHZ):           1.7765519           0.6802534           0.6414941
 Basis read from rwf:  (5D, 7F)
 Pseudo-potential data read from rwf file.
 There are   178 symmetry adapted cartesian basis functions of A   symmetry.
 There are   168 symmetry adapted basis functions of A   symmetry.
   168 basis functions,   339 primitive gaussians,   178 cartesian basis functions
    44 alpha electrons       44 beta electrons
       nuclear repulsion energy       678.5259657557 Hartrees.
 NAtoms=   15 NActive=   15 NUniq=   15 SFac= 1.00D+00 NAtFMM=   60 NAOKFM=F Big=F
 Integral buffers will be    131072 words long.
 Raffenetti 2 integral format.
 Two-electron integral symmetry is turned on.
 One-electron integrals computed using PRISM.
   1 Symmetry operations used in ECPInt.
 ECPInt:  NShTT=    1770 NPrTT=   10201 LenC2=    1675 LenP2D=    6859.
 LDataN:  DoStor=T MaxTD1= 5 Len=  102
 NBasis=   168 RedAO= T EigKep=  6.39D-03  NBF=   168
 NBsUse=   168 1.00D-06 EigRej= -1.00D+00 NBFU=   168
 Defaulting to unpruned grid for atomic number  40.
 Initial guess from the checkpoint file:  "/localscratch/sarashs.33453161.0/Gau-32694.chk"
 B after Tr=     0.000000   -0.000000   -0.000000
         Rot=    0.999987    0.004712   -0.000175    0.001808 Ang=   0.58 deg.
 ExpMin= 2.43D-02 ExpMax= 1.61D+04 ExpMxC= 2.43D+03 IAcc=3 IRadAn=         5 AccDes= 0.00D+00
 Harris functional with IExCor=  402 and IRadAn=       5 diagonalized for initial guess.
 HarFok:  IExCor=  402 AccDes= 0.00D+00 IRadAn=         5 IDoV= 1 UseB2=F ITyADJ=14
 ICtDFT=  3500011 ScaDFX=  1.000000  1.000000  1.000000  1.000000
 Defaulting to unpruned grid for atomic number  40.
 FoFCou: FMM=F IPFlag=           0 FMFlag=      100000 FMFlg1=           0
         NFxFlg=           0 DoJE=T BraDBF=F KetDBF=T FulRan=T
         wScrn=  0.000000 ICntrl=       500 IOpCl=  0 I1Cent=   200000004 NGrid=           0
         NMat0=    1 NMatS0=      1 NMatT0=    0 NMatD0=    1 NMtDS0=    0 NMtDT0=    0
 Petite list used in FoFCou.
 Requested convergence on RMS density matrix=1.00D-08 within 128 cycles.
 Requested convergence on MAX density matrix=1.00D-06.
 Requested convergence on             energy=1.00D-06.
 No special actions if energy rises.
 Defaulting to unpruned grid for atomic number  40.
 Defaulting to unpruned grid for atomic number  40.
 Defaulting to unpruned grid for atomic number  40.
 Defaulting to unpruned grid for atomic number  40.
 Defaulting to unpruned grid for atomic number  40.
 Defaulting to unpruned grid for atomic number  40.
 Defaulting to unpruned grid for atomic number  40.
 Defaulting to unpruned grid for atomic number  40.
 Defaulting to unpruned grid for atomic number  40.
 Defaulting to unpruned grid for atomic number  40.
 Defaulting to unpruned grid for atomic number  40.
 Defaulting to unpruned grid for atomic number  40.
 Defaulting to unpruned grid for atomic number  40.
 Defaulting to unpruned grid for atomic number  40.
 Defaulting to unpruned grid for atomic number  40.
 Defaulting to unpruned grid for atomic number  40.
 SCF Done:  E(RB3LYP) =  -866.672350548     A.U. after   11 cycles
            NFock= 11  Conv=0.56D-08     -V/T= 2.0444
   1 Symmetry operations used in ECPInt.
 ECPInt:  NShTT=    1770 NPrTT=   10201 LenC2=    1675 LenP2D=    6859.
 LDataN:  DoStor=T MaxTD1= 6 Len=  172
 Calling FoFJK, ICntrl=      2127 FMM=F ISym2X=0 I1Cent= 0 IOpClX= 0 NMat=1 NMatS=1 NMatT=0.
 Defaulting to unpruned grid for atomic number  40.
 Defaulting to unpruned grid for atomic number  40.
 Defaulting to unpruned grid for atomic number  40.
 Defaulting to unpruned grid for atomic number  40.
 Defaulting to unpruned grid for atomic number  40.
 Defaulting to unpruned grid for atomic number  40.
 Defaulting to unpruned grid for atomic number  40.
 Defaulting to unpruned grid for atomic number  40.
 Defaulting to unpruned grid for atomic number  40.
 Defaulting to unpruned grid for atomic number  40.
 Defaulting to unpruned grid for atomic number  40.
 Defaulting to unpruned grid for atomic number  40.
 Defaulting to unpruned grid for atomic number  40.
 Defaulting to unpruned grid for atomic number  40.
 Defaulting to unpruned grid for atomic number  40.
 Defaulting to unpruned grid for atomic number  40.
 ***** Axes restored to original set *****
 -------------------------------------------------------------------
 Center     Atomic                   Forces (Hartrees/Bohr)
 Number     Number              X              Y              Z
 -------------------------------------------------------------------
      1       14          -0.024633803   -0.006201862   -0.026357406
      2        8           0.000223154    0.000821731    0.001198366
      3        8           0.000247466   -0.000700485    0.001235204
      4        8          -0.003005566    0.007950968    0.031680812
      5       40           0.047767346    0.000855474   -0.010121107
      6        1           0.000106363   -0.000023290   -0.000122807
      7        1          -0.000261186    0.000028376   -0.000301742
      8        8          -0.024302278    0.000365565    0.008905079
      9        1           0.001351201    0.001107935   -0.001207042
     10        8           0.004700337   -0.000375389   -0.004622100
     11        1          -0.000842897    0.000890574    0.000237932
     12        8           0.002175508   -0.002925366   -0.001750655
     13        1           0.000854149   -0.001232595   -0.001257465
     14        8          -0.004595230   -0.001502865    0.003168234
     15        1           0.000215435    0.000941230   -0.000685303
 -------------------------------------------------------------------
 Cartesian Forces:  Max     0.047767346 RMS     0.011135471

 GradGradGradGradGradGradGradGradGradGradGradGradGradGradGradGradGradGrad
 Berny optimization.
 Using GEDIIS/GDIIS optimizer.
 FormGI is forming the generalized inverse of G from B-inverse, IUseBI=4.
 Internal  Forces:  Max     0.026063248 RMS     0.005510672
 Search for a local minimum.
 Step number   2 out of a maximum of   91
 All quantities printed in internal units (Hartrees-Bohrs-Radians)
 Mixed Optimization -- RFO/linear search
 Update second derivatives using D2CorX and points    1    2
 DE= -1.51D-02 DEPred=-1.69D-02 R= 8.98D-01
 TightC=F SS=  1.41D+00  RLast= 3.16D-01 DXNew= 5.0454D-01 9.4668D-01
 Trust test= 8.98D-01 RLast= 3.16D-01 DXMaxT set to 5.05D-01
 ITU=  1  0
 Use linear search instead of GDIIS.
     Eigenvalues ---    0.00230   0.00230   0.00230   0.01952   0.02371
     Eigenvalues ---    0.03732   0.03782   0.04902   0.05269   0.06393
     Eigenvalues ---    0.09489   0.10831   0.13061   0.13236   0.13857
     Eigenvalues ---    0.14317   0.15533   0.15984   0.16000   0.16000
     Eigenvalues ---    0.16000   0.16033   0.19519   0.19980   0.20406
     Eigenvalues ---    0.20931   0.22212   0.25642   0.33295   0.35577
     Eigenvalues ---    0.43300   0.43907   0.54358   0.54625   0.54681
     Eigenvalues ---    0.54845   0.54969   0.553471000.000001000.00000
     Eigenvalues --- 1000.000001000.000001000.000001000.000001000.00000
     Eigenvalues --- 1000.000001000.000001000.000001000.000001000.00000
     Eigenvalues --- 1000.000001000.000001000.000001000.000001000.00000
     Eigenvalues --- 1000.000001000.000001000.000001000.000001000.00000
     Eigenvalues --- 1000.000001000.000001000.000001000.000001000.00000
     Eigenvalues --- 1000.000001000.000001000.000001000.000001000.00000
     Eigenvalues --- 1000.000001000.000001000.000001000.000001000.00000
     Eigenvalues --- 1000.000001000.000001000.000001000.000001000.00000
     Eigenvalues --- 1000.00000
 RFO step:  Lambda=-4.15787042D-03 EMin= 2.29994895D-03
 Quartic linear search produced a step of  0.68289.
 Iteration  1 RMS(Cart)=  0.04975209 RMS(Int)=  0.00123630
 Iteration  2 RMS(Cart)=  0.00110205 RMS(Int)=  0.00042345
 Iteration  3 RMS(Cart)=  0.00000091 RMS(Int)=  0.00042345
 Iteration  1 RMS(Cart)=  0.00001125 RMS(Int)=  0.00002180
 Iteration  2 RMS(Cart)=  0.00000933 RMS(Int)=  0.00002329
 Iteration  3 RMS(Cart)=  0.00000774 RMS(Int)=  0.00002646
 Iteration  4 RMS(Cart)=  0.00000643 RMS(Int)=  0.00003002
 Iteration  5 RMS(Cart)=  0.00000533 RMS(Int)=  0.00003341
 Iteration  6 RMS(Cart)=  0.00000443 RMS(Int)=  0.00003644
 Iteration  7 RMS(Cart)=  0.00000367 RMS(Int)=  0.00003907
 Iteration  8 RMS(Cart)=  0.00000305 RMS(Int)=  0.00004132
 Iteration  9 RMS(Cart)=  0.00000253 RMS(Int)=  0.00004322
 Iteration 10 RMS(Cart)=  0.00000210 RMS(Int)=  0.00004482
 Iteration 11 RMS(Cart)=  0.00000174 RMS(Int)=  0.00004616
 Iteration 12 RMS(Cart)=  0.00000145 RMS(Int)=  0.00004728
 Iteration 13 RMS(Cart)=  0.00000120 RMS(Int)=  0.00004822
 Iteration 14 RMS(Cart)=  0.00000100 RMS(Int)=  0.00004900
 Variable       Old X    -DE/DX   Delta X   Delta X   Delta X     New X
                                 (Linear)    (Quad)   (Total)
    R1        3.09914   0.00034  -0.00276   0.00443   0.00167   3.10081
    R2        3.10799   0.00054  -0.00157   0.00385   0.00228   3.11027
    R3        3.10117  -0.01310   0.01625   0.00428   0.02015   3.12132
    R4        5.24417   0.02336   0.06393   0.03606   0.10001   5.34417
    R5        3.19120   0.00378  -0.00274  -0.00023  -0.00305   3.18815
    R6        1.81984  -0.00002   0.00009  -0.00015  -0.00006   1.81978
    R7        1.82210  -0.00004   0.00029  -0.00044  -0.00015   1.82195
    R8        3.97195  -0.00983   0.06608   0.04116   0.10715   4.07909
    R9        4.17190   0.02606   0.15744   0.05162   0.20945   4.38136
   R10        3.73679  -0.00288   0.01132  -0.03652  -0.02520   3.71159
   R11        3.80684  -0.00514   0.04124  -0.08995  -0.04871   3.75813
   R12        3.72898  -0.00504   0.02362  -0.06665  -0.04303   3.68595
   R13        1.83182   0.00021   0.00477  -0.00483  -0.00006   1.83176
   R14        1.81693   0.00042  -0.00127   0.00274   0.00147   1.81840
   R15        1.82165  -0.00020   0.00032  -0.00098  -0.00066   1.82099
   R16        1.81531  -0.00022   0.00004  -0.00070  -0.00066   1.81465
    A1        1.87633   0.00052  -0.00169   0.00240   0.00020   1.87654
    A2        2.06553   0.00306  -0.00059  -0.00203  -0.00245   2.06308
    A3        2.12313  -0.00008  -0.00331  -0.00208  -0.00509   2.11804
    A4        1.82314  -0.00115  -0.01334  -0.01117  -0.02482   1.79832
    A5        1.96247   0.00435  -0.00416  -0.00086  -0.00475   1.95773
    A6        2.27829  -0.00031   0.00527  -0.00064   0.00484   2.28313
    A7        1.95877  -0.00049  -0.01870  -0.00062  -0.01949   1.93928
    A8        1.77167  -0.00728   0.03794   0.01174   0.04937   1.82105
    A9        2.02125  -0.00010  -0.00128   0.00033  -0.00095   2.02031
   A10        1.99836   0.00032  -0.00031   0.00357   0.00326   2.00162
   A11        1.65645   0.01705  -0.00001   0.00000  -0.00000   1.65645
   A12        1.76349   0.00287   0.01237   0.01134   0.02283   1.78631
   A13        1.62869   0.00324   0.01920   0.00663   0.02540   1.65409
   A14        2.45079  -0.00212  -0.00668  -0.01213  -0.01860   2.43219
   A15        1.28224  -0.00988  -0.01554  -0.00898  -0.02425   1.25799
   A16        1.97314  -0.00112  -0.00024  -0.00460  -0.00525   1.96789
   A17        1.99782  -0.00143   0.00856   0.00830   0.01651   2.01433
   A18        1.83062   0.00525  -0.00148  -0.00748  -0.00899   1.82163
   A19        1.42252   0.00528   0.01794   0.02865   0.04624   1.46876
   A20        1.28449   0.00441   0.03269  -0.00139   0.03066   1.31515
   A21        2.02228   0.00250   0.01960   0.00942   0.02749   2.04977
   A22        1.80284  -0.00250  -0.01444  -0.01062  -0.02497   1.77786
   A23        1.80410  -0.00257  -0.01931   0.00085  -0.01808   1.78602
   A24        2.04475   0.00109   0.00620  -0.01426  -0.00833   2.03642
   A25        1.98696  -0.00065  -0.00237  -0.01402  -0.01657   1.97039
   A26        2.29911  -0.00214  -0.00741  -0.01381  -0.02122   2.27789
   A27        2.20855  -0.00351  -0.01023  -0.02475  -0.03498   2.17357
   A28        2.49766   0.00213   0.01303   0.00676   0.01975   2.51741
   A29        3.11286  -0.00463  -0.01702  -0.01647  -0.03324   3.07962
   A30        3.05892  -0.00089   0.00529  -0.01196  -0.00723   3.05169
    D1       -0.55655  -0.00228  -0.00410  -0.00492  -0.00891  -0.56547
    D2        1.68934   0.00691  -0.01210  -0.00556  -0.01743   1.67191
    D3        2.68579  -0.00351  -0.00691  -0.00204  -0.00887   2.67692
    D4       -2.64057  -0.00138   0.02551   0.00033   0.02542  -2.61515
    D5        2.65515   0.00183   0.00492  -0.00244   0.00237   2.65752
    D6        0.35160  -0.00617   0.01051  -0.00104   0.00923   0.36083
    D7       -0.59935   0.00324   0.00730  -0.00575   0.00149  -0.59786
    D8       -1.63289   0.00050  -0.02274  -0.01479  -0.03712  -1.67001
    D9        2.51501   0.00305   0.01165   0.02192   0.03383   2.54884
   D10        0.47006  -0.00082  -0.01460   0.00867  -0.00606   0.46399
   D11       -1.54919   0.00048  -0.00384   0.00598   0.00203  -1.54716
   D12       -0.50003   0.00144   0.00877   0.02538   0.03440  -0.46562
   D13       -2.54498  -0.00242  -0.01747   0.01213  -0.00549  -2.55047
   D14        1.71896  -0.00113  -0.00671   0.00943   0.00261   1.72157
   D15       -0.03629  -0.00082  -0.01602  -0.02549  -0.04087  -0.07716
   D16       -2.06376  -0.00052   0.00387  -0.02153  -0.01829  -2.08205
   D17        2.12033  -0.00112  -0.00531  -0.02717  -0.03240   2.08792
   D18       -2.15522  -0.00072  -0.00078   0.02600   0.02475  -2.13047
   D19        2.08217  -0.00049   0.00160   0.03990   0.04225   2.12442
   D20       -0.01666   0.00054   0.00035   0.04134   0.04020   0.02354
   D21        2.10716   0.00264   0.00965   0.02254   0.03316   2.14032
   D22       -0.92559  -0.00270  -0.00632  -0.00617  -0.01309  -0.93868
   D23       -1.54942   0.00396  -0.00641  -0.00807  -0.01429  -1.56371
   D24       -0.36438  -0.00416  -0.01466  -0.00185  -0.01658  -0.38097
   D25        0.80603   0.00320   0.02650   0.00996   0.03731   0.84334
   D26        2.76510  -0.00030   0.00366   0.00865   0.01195   2.77704
   D27       -2.55886   0.00221   0.00555   0.02620   0.03211  -2.52675
   D28       -2.02890  -0.00373   0.00867   0.02087   0.03011  -1.99879
   D29       -3.12185   0.00474   0.01121   0.03762   0.04873  -3.07312
   D30        1.90984  -0.00314  -0.02060   0.00833  -0.01338   1.89646
   D31       -0.04850   0.00032  -0.00065   0.01627   0.01589  -0.03261
   D32       -2.18613  -0.00015  -0.00195  -0.01860  -0.02074  -2.20686
   D33       -2.04896  -0.00107  -0.00285  -0.01572  -0.01895  -2.06792
   D34        0.02152  -0.00122  -0.01014  -0.02854  -0.03864  -0.01712
   D35        2.13561  -0.00057  -0.00302  -0.02219  -0.02571   2.10989
         Item               Value     Threshold  Converged?
 Maximum Force            0.019745     0.000450     NO 
 RMS     Force            0.003118     0.000300     NO 
 Maximum Displacement     0.203425     0.001800     NO 
 RMS     Displacement     0.050232     0.001200     NO 
 Predicted change in Energy=-2.814007D-03
 GradGradGradGradGradGradGradGradGradGradGradGradGradGradGradGradGradGrad

                          Input orientation:                          
 ---------------------------------------------------------------------
 Center     Atomic      Atomic             Coordinates (Angstroms)
 Number     Number       Type             X           Y           Z
 ---------------------------------------------------------------------
      1         14           0       -1.956128   -0.047405   -0.138486
      2          8           0       -2.814160    1.328184   -0.391503
      3          8           0       -3.023013   -1.300549   -0.120631
      4          8           0       -0.657666   -0.348153   -1.114073
      5         40           0        0.815564    0.028494    0.417960
      6          1           0       -3.598835    1.236592   -0.942169
      7          1           0       -2.653888   -2.147561   -0.396076
      8          8           0       -1.283000    0.199425    1.388690
      9          1           0       -1.439541    1.063661    1.798787
     10          8           0        1.039095   -1.487912    1.646044
     11          1           0        0.585418   -1.698745    2.468030
     12          8           0        0.775266    1.851850    1.210891
     13          1           0        1.480992    2.501947    1.122025
     14          8           0        2.517099    0.026441   -0.535619
     15          1           0        3.368639   -0.411290   -0.609061
 ---------------------------------------------------------------------
                    Distance matrix (angstroms):
                    1          2          3          4          5
     1  Si   0.000000
     2  O    1.640878   0.000000
     3  O    1.645884   2.650893   0.000000
     4  O    1.651733   2.825364   2.736577   0.000000
     5  Zr   2.828015   3.939457   4.097696   2.158563   0.000000
     6  H    2.234511   0.962984   2.728293   3.345362   4.774555
     7  H    2.227976   3.479441   0.964133   2.781779   4.175520
     8  O    1.687096   2.605309   2.748748   2.637178   2.318514
     9  H    2.292239   2.599408   3.432352   3.330061   2.839675
    10  O    3.772396   5.189371   4.433618   3.434574   1.964089
    11  H    3.997538   5.375533   4.458755   4.025025   2.690560
    12  O    3.590055   3.965585   5.112484   3.506959   1.988715
    13  H    4.461152   4.702852   6.024055   4.206788   2.656402
    14  O    4.491428   5.489775   5.711914   3.248701   1.950523
    15  H    5.357891   6.426516   6.471674   4.058344   2.786821
                    6          7          8          9         10
     6  H    0.000000
     7  H    3.555789   0.000000
     8  O    3.445535   3.251625   0.000000
     9  H    3.493608   4.074801   0.969324   0.000000
    10  O    5.969269   4.271243   2.881920   3.560547   0.000000
    11  H    6.144399   4.347142   2.873850   3.489876   0.962255
    12  O    4.913956   5.507878   2.645483   2.423269   3.378309
    13  H    5.627314   6.404669   3.607267   3.325085   4.048314
    14  O    6.247752   5.611137   4.263056   4.709595   3.039312
    15  H    7.167439   6.271429   5.099189   5.576003   3.416342
                   11         12         13         14         15
    11  H    0.000000
    12  O    3.771361   0.000000
    13  H    4.501066   0.963625   0.000000
    14  O    3.966052   3.068615   3.154272   0.000000
    15  H    4.344232   3.893534   3.879023   0.960272   0.000000
 Stoichiometry    H6O7SiZr
 Framework group  C1[X(H6O7SiZr)]
 Deg. of freedom    39
 Full point group                 C1      NOp   1
 Largest Abelian subgroup         C1      NOp   1
 Largest concise Abelian subgroup C1      NOp   1
                         Standard orientation:                         
 ---------------------------------------------------------------------
 Center     Atomic      Atomic             Coordinates (Angstroms)
 Number     Number       Type             X           Y           Z
 ---------------------------------------------------------------------
      1         14           0       -1.792375   -0.037890   -0.162810
      2          8           0       -2.651064    1.355738   -0.276544
      3          8           0       -2.868855   -1.269694    0.018256
      4          8           0       -0.667773   -0.359316   -1.329077
      5         40           0        1.033088   -0.019869   -0.044071
      6          1           0       -3.513509    1.282570   -0.698649
      7          1           0       -2.564396   -2.122433   -0.312942
      8          8           0       -0.885123    0.187668    1.241580
      9          1           0       -0.958343    1.052717    1.672762
     10          8           0        1.413835   -1.546716    1.131267
     11          1           0        1.089253   -1.752734    2.013388
     12          8           0        1.153757    1.799820    0.749124
     13          1           0        1.850202    2.436235    0.552878
     14          8           0        2.565294   -0.050775   -1.250691
     15          1           0        3.385954   -0.504932   -1.456556
 ---------------------------------------------------------------------
 Rotational constants (GHZ):           1.7788952           0.6621816           0.6251480
 Basis read from rwf:  (5D, 7F)
 Pseudo-potential data read from rwf file.
 There are   178 symmetry adapted cartesian basis functions of A   symmetry.
 There are   168 symmetry adapted basis functions of A   symmetry.
   168 basis functions,   339 primitive gaussians,   178 cartesian basis functions
    44 alpha electrons       44 beta electrons
       nuclear repulsion energy       673.5089010164 Hartrees.
 NAtoms=   15 NActive=   15 NUniq=   15 SFac= 1.00D+00 NAtFMM=   60 NAOKFM=F Big=F
 Integral buffers will be    131072 words long.
 Raffenetti 2 integral format.
 Two-electron integral symmetry is turned on.
 One-electron integrals computed using PRISM.
   1 Symmetry operations used in ECPInt.
 ECPInt:  NShTT=    1770 NPrTT=   10201 LenC2=    1674 LenP2D=    6831.
 LDataN:  DoStor=T MaxTD1= 5 Len=  102
 NBasis=   168 RedAO= T EigKep=  6.67D-03  NBF=   168
 NBsUse=   168 1.00D-06 EigRej= -1.00D+00 NBFU=   168
 Defaulting to unpruned grid for atomic number  40.
 Initial guess from the checkpoint file:  "/localscratch/sarashs.33453161.0/Gau-32694.chk"
 B after Tr=    -0.000000   -0.000000    0.000000
         Rot=    0.999995    0.002532   -0.001944    0.000567 Ang=   0.37 deg.
 ExpMin= 2.43D-02 ExpMax= 1.61D+04 ExpMxC= 2.43D+03 IAcc=3 IRadAn=         5 AccDes= 0.00D+00
 Harris functional with IExCor=  402 and IRadAn=       5 diagonalized for initial guess.
 HarFok:  IExCor=  402 AccDes= 0.00D+00 IRadAn=         5 IDoV= 1 UseB2=F ITyADJ=14
 ICtDFT=  3500011 ScaDFX=  1.000000  1.000000  1.000000  1.000000
 Defaulting to unpruned grid for atomic number  40.
 FoFCou: FMM=F IPFlag=           0 FMFlag=      100000 FMFlg1=           0
         NFxFlg=           0 DoJE=T BraDBF=F KetDBF=T FulRan=T
         wScrn=  0.000000 ICntrl=       500 IOpCl=  0 I1Cent=   200000004 NGrid=           0
         NMat0=    1 NMatS0=      1 NMatT0=    0 NMatD0=    1 NMtDS0=    0 NMtDT0=    0
 Petite list used in FoFCou.
 Requested convergence on RMS density matrix=1.00D-08 within 128 cycles.
 Requested convergence on MAX density matrix=1.00D-06.
 Requested convergence on             energy=1.00D-06.
 No special actions if energy rises.
 Defaulting to unpruned grid for atomic number  40.
 Defaulting to unpruned grid for atomic number  40.
 Defaulting to unpruned grid for atomic number  40.
 Defaulting to unpruned grid for atomic number  40.
 Defaulting to unpruned grid for atomic number  40.
 Defaulting to unpruned grid for atomic number  40.
 Defaulting to unpruned grid for atomic number  40.
 Defaulting to unpruned grid for atomic number  40.
 Defaulting to unpruned grid for atomic number  40.
 Defaulting to unpruned grid for atomic number  40.
 Defaulting to unpruned grid for atomic number  40.
 Defaulting to unpruned grid for atomic number  40.
 Defaulting to unpruned grid for atomic number  40.
 Defaulting to unpruned grid for atomic number  40.
 Defaulting to unpruned grid for atomic number  40.
 Defaulting to unpruned grid for atomic number  40.
 SCF Done:  E(RB3LYP) =  -866.676534195     A.U. after   11 cycles
            NFock= 11  Conv=0.69D-08     -V/T= 2.0444
   1 Symmetry operations used in ECPInt.
 ECPInt:  NShTT=    1770 NPrTT=   10201 LenC2=    1674 LenP2D=    6831.
 LDataN:  DoStor=T MaxTD1= 6 Len=  172
 Calling FoFJK, ICntrl=      2127 FMM=F ISym2X=0 I1Cent= 0 IOpClX= 0 NMat=1 NMatS=1 NMatT=0.
 Defaulting to unpruned grid for atomic number  40.
 Defaulting to unpruned grid for atomic number  40.
 Defaulting to unpruned grid for atomic number  40.
 Defaulting to unpruned grid for atomic number  40.
 Defaulting to unpruned grid for atomic number  40.
 Defaulting to unpruned grid for atomic number  40.
 Defaulting to unpruned grid for atomic number  40.
 Defaulting to unpruned grid for atomic number  40.
 Defaulting to unpruned grid for atomic number  40.
 Defaulting to unpruned grid for atomic number  40.
 Defaulting to unpruned grid for atomic number  40.
 Defaulting to unpruned grid for atomic number  40.
 Defaulting to unpruned grid for atomic number  40.
 Defaulting to unpruned grid for atomic number  40.
 Defaulting to unpruned grid for atomic number  40.
 Defaulting to unpruned grid for atomic number  40.
 ***** Axes restored to original set *****
 -------------------------------------------------------------------
 Center     Atomic                   Forces (Hartrees/Bohr)
 Number     Number              X              Y              Z
 -------------------------------------------------------------------
      1       14          -0.017160700   -0.007666998   -0.029334937
      2        8          -0.001065933    0.001730090   -0.000246847
      3        8          -0.000162613   -0.001328580    0.000926975
      4        8          -0.000575993    0.012213377    0.045558383
      5       40           0.016840004   -0.003939018   -0.019401236
      6        1           0.000325220    0.000141118   -0.000367759
      7        1          -0.000201278    0.000413642   -0.000614693
      8        8          -0.002121363   -0.000991471    0.003041405
      9        1           0.000739751   -0.000176507   -0.001793426
     10        8           0.000740003   -0.002234011    0.001573526
     11        1          -0.000020095   -0.000006844    0.000740665
     12        8           0.000353745    0.001502737    0.001593646
     13        1           0.000530834    0.000409662   -0.000301526
     14        8           0.001576775   -0.000365482   -0.000555813
     15        1           0.000201643    0.000298285   -0.000818362
 -------------------------------------------------------------------
 Cartesian Forces:  Max     0.045558383 RMS     0.009612908

 GradGradGradGradGradGradGradGradGradGradGradGradGradGradGradGradGradGrad
 Berny optimization.
 Using GEDIIS/GDIIS optimizer.
 FormGI is forming the generalized inverse of G from B-inverse, IUseBI=4.
 Internal  Forces:  Max     0.020252260 RMS     0.005169025
 Search for a local minimum.
 Step number   3 out of a maximum of   91
 All quantities printed in internal units (Hartrees-Bohrs-Radians)
 Mixed Optimization -- En-DIIS/RFO-DIIS
 Update second derivatives using D2CorX and points    2    3
 DE= -4.18D-03 DEPred=-2.81D-03 R= 1.49D+00
 TightC=F SS=  1.41D+00  RLast= 3.29D-01 DXNew= 8.4853D-01 9.8599D-01
 Trust test= 1.49D+00 RLast= 3.29D-01 DXMaxT set to 8.49D-01
 ITU=  1  1  0
 Use linear search instead of GDIIS.
     Eigenvalues ---    0.00230   0.00230   0.00230   0.01952   0.02407
     Eigenvalues ---    0.03721   0.03779   0.04992   0.05386   0.06230
     Eigenvalues ---    0.08235   0.09740   0.12113   0.13335   0.13645
     Eigenvalues ---    0.14271   0.15668   0.15994   0.16000   0.16000
     Eigenvalues ---    0.16015   0.16030   0.19576   0.19995   0.20291
     Eigenvalues ---    0.20961   0.22237   0.25856   0.33485   0.36045
     Eigenvalues ---    0.43303   0.43957   0.54373   0.54626   0.54691
     Eigenvalues ---    0.54845   0.54971   0.553471000.000001000.00000
     Eigenvalues --- 1000.000001000.000001000.000001000.000001000.00000
     Eigenvalues --- 1000.000001000.000001000.000001000.000001000.00000
     Eigenvalues --- 1000.000001000.000001000.000001000.000001000.00000
     Eigenvalues --- 1000.000001000.000001000.000001000.000001000.00000
     Eigenvalues --- 1000.000001000.000001000.000001000.000001000.00000
     Eigenvalues --- 1000.000001000.000001000.000001000.000001000.00000
     Eigenvalues --- 1000.000001000.000001000.000001000.000001000.00000
     Eigenvalues --- 1000.000001000.000001000.000001000.000001000.00000
     Eigenvalues --- 1000.00000
 RFO step:  Lambda=-3.33400864D-04 EMin= 2.29720251D-03
 Quartic linear search produced a step of  0.03188.
 Iteration  1 RMS(Cart)=  0.01375466 RMS(Int)=  0.00016531
 Iteration  2 RMS(Cart)=  0.00014578 RMS(Int)=  0.00003388
 Iteration  3 RMS(Cart)=  0.00000003 RMS(Int)=  0.00003388
 Iteration  1 RMS(Cart)=  0.00000189 RMS(Int)=  0.00000366
 Iteration  2 RMS(Cart)=  0.00000157 RMS(Int)=  0.00000391
 Iteration  3 RMS(Cart)=  0.00000130 RMS(Int)=  0.00000444
 Iteration  4 RMS(Cart)=  0.00000108 RMS(Int)=  0.00000503
 Iteration  5 RMS(Cart)=  0.00000090 RMS(Int)=  0.00000560
 Variable       Old X    -DE/DX   Delta X   Delta X   Delta X     New X
                                 (Linear)    (Quad)   (Total)
    R1        3.10081   0.00205   0.00005   0.00500   0.00505   3.10586
    R2        3.11027   0.00094   0.00007   0.00239   0.00246   3.11273
    R3        3.12132  -0.02025   0.00064  -0.00725  -0.00663   3.11470
    R4        5.34417   0.01608   0.00319  -0.00359  -0.00042   5.34375
    R5        3.18815   0.00534  -0.00010   0.00202   0.00195   3.19010
    R6        1.81978  -0.00007  -0.00000  -0.00013  -0.00013   1.81964
    R7        1.82195  -0.00026  -0.00000  -0.00052  -0.00052   1.82143
    R8        4.07909  -0.01934   0.00342   0.00137   0.00476   4.08385
[...]
 ! A25   A(5,8,9)              109.2385         -DE/DX =    0.0012              !
 ! A26   A(5,10,11)            131.1524         -DE/DX =    0.0                 !
 ! A27   A(5,12,13)            124.1417         -DE/DX =    0.0                 !
 ! A28   A(5,14,15)            147.6447         -DE/DX =    0.0                 !
 ! A29   L(8,5,14,4,-1)        168.9027         -DE/DX =   -0.0031              !
 ! A30   L(8,5,14,4,-2)        167.9861         -DE/DX =   -0.0011              !
 ! D1    D(3,1,2,6)            -43.0925         -DE/DX =   -0.0015              !
 ! D2    D(4,1,2,6)             86.7855         -DE/DX =    0.0084              !
 ! D3    D(5,1,2,6)            143.348          -DE/DX =   -0.0025              !
 ! D4    D(8,1,2,6)           -160.617          -DE/DX =   -0.0044              !
 ! D5    D(2,1,3,7)            148.7417         -DE/DX =    0.0008              !
 ! D6    D(4,1,3,7)             15.8062         -DE/DX =   -0.0064              !
 ! D7    D(5,1,3,7)            -39.5008         -DE/DX =    0.0024              !
 ! D8    D(8,1,3,7)            -99.9158         -DE/DX =    0.0031              !
 ! D9    D(2,1,5,10)           148.9695         -DE/DX =    0.0013              !
 ! D10   D(2,1,5,12)            30.701          -DE/DX =    0.0006              !
 ! D11   D(2,1,5,14)           -80.1085         -DE/DX =    0.0001              !
 ! D12   D(3,1,5,10)           -22.3268         -DE/DX =   -0.0002              !
 ! D13   D(3,1,5,12)          -140.5954         -DE/DX =   -0.001               !
 ! D14   D(3,1,5,14)           108.5951         -DE/DX =   -0.0014              !
 ! D15   D(2,1,8,9)             -2.4832         -DE/DX =    0.0007              !
 ! D16   D(3,1,8,9)           -117.8296         -DE/DX =   -0.0001              !
 ! D17   D(4,1,8,9)            120.8669         -DE/DX =   -0.0016              !
 ! D18   D(4,5,8,9)           -125.0995         -DE/DX =    0.0005              !
 ! D19   D(10,5,8,9)           119.3119         -DE/DX =   -0.0003              !
 ! D20   D(12,5,8,9)             4.5362         -DE/DX =    0.0004              !
 ! D21   D(9,8,14,15)          -86.7938         -DE/DX =    0.0002              !
 ! D22   D(1,5,10,11)          -68.027          -DE/DX =   -0.0022              !
 ! D23   D(4,5,10,11)         -105.7376         -DE/DX =    0.0052              !
 ! D24   D(8,5,10,11)          -35.9685         -DE/DX =   -0.0025              !
 ! D25   D(12,5,10,11)          38.2996         -DE/DX =   -0.0001              !
 ! D26   D(14,5,10,11)         148.6708         -DE/DX =   -0.0005              !
 ! D27   D(1,5,12,13)         -141.2831         -DE/DX =    0.0009              !
 ! D28   D(4,5,12,13)         -114.24           -DE/DX =   -0.004               !
 ! D29   D(8,5,12,13)         -171.8991         -DE/DX =    0.0029              !
 ! D30   D(10,5,12,13)         104.0241         -DE/DX =    0.0002              !
 ! D31   D(14,5,12,13)          -8.1804         -DE/DX =    0.0                 !
 ! D32   D(1,5,14,15)           15.5696         -DE/DX =    0.0016              !
 ! D33   D(4,5,14,15)           30.438          -DE/DX =   -0.002               !
 ! D34   D(10,5,14,15)         148.1989         -DE/DX =    0.0002              !
 ! D35   D(12,5,14,15)         -92.7169         -DE/DX =    0.0001              !
 --------------------------------------------------------------------------------
 GradGradGradGradGradGradGradGradGradGradGradGradGradGradGradGradGradGrad

                          Input orientation:                          
 ---------------------------------------------------------------------
 Center     Atomic      Atomic             Coordinates (Angstroms)
 Number     Number       Type             X           Y           Z
 ---------------------------------------------------------------------
      1         14           0       -1.925994   -0.115260   -0.168255
      2          8           0       -2.573098    1.344587   -0.564248
      3          8           0       -3.133236   -1.234333   -0.169035
      4          8           0       -0.593845   -0.621140   -0.977063
      5         40           0        0.799392   -0.093219    0.610059
      6          1           0       -3.208010    1.345782   -1.288168
      7          1           0       -2.848541   -2.120638   -0.420047
      8          8           0       -1.350505    0.169352    1.398800
      9          1           0       -1.458628    1.071666    1.737640
     10          8           0        1.127598   -1.529337    1.914131
     11          1           0        0.825645   -1.642545    2.821466
     12          8           0        0.774062    1.737996    1.403143
     13          1           0        1.494772    2.373045    1.321399
     14          8           0        2.416357   -0.031346   -0.478247
     15          1           0        2.809870    0.140370   -1.336765
 ---------------------------------------------------------------------
                    Distance matrix (angstroms):
                    1          2          3          4          5
     1  Si   0.000000
     2  O    1.645207   0.000000
     3  O    1.646134   2.668478   0.000000
     4  O    1.638508   2.819919   2.734487   0.000000
     5  Zr   2.834429   3.849672   4.168296   2.176871   0.000000
     6  H    2.243304   0.962899   2.813368   3.286249   4.661894
     7  H    2.221719   3.479145   0.964155   2.764492   4.298717
     8  O    1.693474   2.594122   2.758000   2.615748   2.305019
     9  H    2.293395   2.572007   3.428899   3.314069   2.779757
    10  O    3.957319   5.300656   4.751980   3.485282   1.967425
    11  H    4.340801   5.651325   4.978199   4.181751   2.700263
    12  O    3.632375   3.902419   5.154944   3.619678   1.995738
    13  H    4.484681   4.600104   6.054174   4.313976   2.659326
    14  O    4.354211   5.176413   5.686895   3.107731   1.950081
    15  H    4.884585   5.569854   6.210790   3.506360   2.808328
                    6          7          8          9         10
     6  H    0.000000
     7  H    3.591506   0.000000
     8  O    3.471903   3.285783   0.000000
     9  H    3.505851   4.096129   0.969884   0.000000
    10  O    6.108889   4.648409   3.048295   3.672183   0.000000
    11  H    6.487647   4.922969   3.169002   3.709383   0.962938
    12  O    4.822228   5.597886   2.640918   2.353887   3.325892
    13  H    5.475515   6.487695   3.599702   3.254138   3.964181
    14  O    5.846877   5.664599   4.213412   4.598076   3.102958
    15  H    6.137611   6.161992   4.979244   5.342224   4.023218
                   11         12         13         14         15
    11  H    0.000000
    12  O    3.666382   0.000000
    13  H    4.338535   0.964050   0.000000
    14  O    4.001804   3.060610   3.141519   0.000000
    15  H    4.940326   3.768822   3.712163   0.959891   0.000000
 Stoichiometry    H6O7SiZr
 Framework group  C1[X(H6O7SiZr)]
 Deg. of freedom    39
 Full point group                 C1      NOp   1
 Largest Abelian subgroup         C1      NOp   1
 Largest concise Abelian subgroup C1      NOp   1
                         Standard orientation:                         
 ---------------------------------------------------------------------
 Center     Atomic      Atomic             Coordinates (Angstroms)
 Number     Number       Type             X           Y           Z
 ---------------------------------------------------------------------
      1         14           0       -1.802262   -0.032555   -0.141446
      2          8           0       -2.512791    1.451277   -0.151308
      3          8           0       -2.984496   -1.172191   -0.026078
      4          8           0       -0.703188   -0.376822   -1.306875
      5         40           0        1.029953   -0.050197   -0.030823
      6          1           0       -3.300797    1.541571   -0.697263
      7          1           0       -2.774388   -2.003656   -0.466663
      8          8           0       -0.870381    0.033896    1.271011
      9          1           0       -0.888038    0.873125    1.756868
     10          8           0        1.645472   -1.653130    0.929646
     11          1           0        1.565642   -1.907043    1.855067
     12          8           0        1.207633    1.642816    1.010861
     13          1           0        1.893714    2.302623    0.858089
     14          8           0        2.344292    0.215908   -1.446632
     15          1           0        2.525097    0.523005   -2.337919
 ---------------------------------------------------------------------
 Rotational constants (GHZ):           1.7210168           0.6588270           0.6331796

 **********************************************************************

            Population analysis using the SCF Density.

 **********************************************************************

 Orbital symmetries:
       Occupied  (A) (A) (A) (A) (A) (A) (A) (A) (A) (A) (A) (A)
                 (A) (A) (A) (A) (A) (A) (A) (A) (A) (A) (A) (A)
                 (A) (A) (A) (A) (A) (A) (A) (A) (A) (A) (A) (A)
                 (A) (A) (A) (A) (A) (A) (A) (A)
       Virtual   (A) (A) (A) (A) (A) (A) (A) (A) (A) (A) (A) (A)
                 (A) (A) (A) (A) (A) (A) (A) (A) (A) (A) (A) (A)
                 (A) (A) (A) (A) (A) (A) (A) (A) (A) (A) (A) (A)
                 (A) (A) (A) (A) (A) (A) (A) (A) (A) (A) (A) (A)
                 (A) (A) (A) (A) (A) (A) (A) (A) (A) (A) (A) (A)
                 (A) (A) (A) (A) (A) (A) (A) (A) (A) (A) (A) (A)
                 (A) (A) (A) (A) (A) (A) (A) (A) (A) (A) (A) (A)
                 (A) (A) (A) (A) (A) (A) (A) (A) (A) (A) (A) (A)
                 (A) (A) (A) (A) (A) (A) (A) (A) (A) (A) (A) (A)
                 (A) (A) (A) (A) (A) (A) (A) (A) (A) (A) (A) (A)
                 (A) (A) (A) (A)
 The electronic state is 1-A.
 Alpha  occ. eigenvalues --  -66.20052 -19.19139 -19.15539 -19.15400 -19.13560
 Alpha  occ. eigenvalues --  -19.13429 -19.13194 -19.12535  -5.34500  -3.70549
 Alpha  occ. eigenvalues --   -3.70401  -3.70308  -2.06228  -1.27210  -1.26673
 Alpha  occ. eigenvalues --   -1.26132  -1.05298  -1.01640  -1.00141  -0.95284
 Alpha  occ. eigenvalues --   -0.94659  -0.94156  -0.92730  -0.59308  -0.54831
 Alpha  occ. eigenvalues --   -0.52364  -0.48728  -0.47445  -0.46592  -0.42781
 Alpha  occ. eigenvalues --   -0.41752  -0.40423  -0.38247  -0.35903  -0.34760
 Alpha  occ. eigenvalues --   -0.34566  -0.33940  -0.33694  -0.33011  -0.31594
 Alpha  occ. eigenvalues --   -0.30811  -0.30577  -0.30106  -0.29524
 Alpha virt. eigenvalues --   -0.02369  -0.02066  -0.00553   0.00679   0.01171
 Alpha virt. eigenvalues --    0.01929   0.02325   0.02945   0.05559   0.08263
 Alpha virt. eigenvalues --    0.09389   0.12142   0.14133   0.14832   0.16522
 Alpha virt. eigenvalues --    0.16684   0.18028   0.18855   0.19635   0.22830
 Alpha virt. eigenvalues --    0.24530   0.24585   0.25382   0.26270   0.28423
 Alpha virt. eigenvalues --    0.30323   0.30928   0.33254   0.36553   0.38879
 Alpha virt. eigenvalues --    0.41495   0.54929   0.61209   0.74659   0.78879
 Alpha virt. eigenvalues --    0.80707   0.83375   0.84515   0.87706   0.89899
 Alpha virt. eigenvalues --    0.90462   0.91193   0.92764   0.93283   0.96391
 Alpha virt. eigenvalues --    0.97715   0.98303   0.99474   1.02497   1.03311
 Alpha virt. eigenvalues --    1.05964   1.07553   1.07947   1.08663   1.11587
 Alpha virt. eigenvalues --    1.13718   1.14853   1.18703   1.19695   1.21253
 Alpha virt. eigenvalues --    1.23339   1.27438   1.31814   1.41994   1.46692
 Alpha virt. eigenvalues --    1.47877   1.50437   1.52563   1.54381   1.56675
 Alpha virt. eigenvalues --    1.57184   1.58160   1.59182   1.60420   1.61874
 Alpha virt. eigenvalues --    1.63105   1.66017   1.68357   1.69021   1.71272
 Alpha virt. eigenvalues --    1.74086   1.74915   1.78427   1.80773   1.81678
 Alpha virt. eigenvalues --    1.82422   1.83771   1.84361   1.87184   1.87477
 Alpha virt. eigenvalues --    1.90276   1.93781   2.00092   2.08540   2.13992
 Alpha virt. eigenvalues --    2.32725   2.35580   2.36493   2.37145   2.38808
 Alpha virt. eigenvalues --    2.39945   2.42376   2.54570   2.58417   2.61198
 Alpha virt. eigenvalues --    2.62562   2.63444   2.64114   2.64540   2.64825
 Alpha virt. eigenvalues --    2.65037   2.65598   2.65988   2.66365   2.70779
 Alpha virt. eigenvalues --    2.76655   2.80609   3.39830   3.41587   3.43025
 Alpha virt. eigenvalues --    3.44114   3.45345   3.46916   4.71035
          Condensed to atoms (all electrons):
               1          2          3          4          5          6
     1  Si  11.631224   0.373764   0.390775   0.348523  -0.111907  -0.023472
     2  O    0.373764   7.969612  -0.019051  -0.011809   0.010234   0.305445
     3  O    0.390775  -0.019051   7.942857  -0.017638   0.003214  -0.001040
     4  O    0.348523  -0.011809  -0.017638   8.218532   0.206067  -0.000539
     5  Zr  -0.111907   0.010234   0.003214   0.206067   9.829476  -0.000914
     6  H   -0.023472   0.305445  -0.001040  -0.000539  -0.000914   0.381040
     7  H   -0.016941   0.000308   0.301427   0.000807  -0.003320  -0.000055
     8  O    0.242897  -0.022532  -0.013735  -0.027709   0.072926   0.000795
     9  H   -0.008950   0.001913  -0.000283   0.000231  -0.010676   0.000029
    10  O   -0.008982  -0.000000   0.000001   0.000040   0.225478  -0.000000
    11  H    0.000229  -0.000000   0.000000  -0.000005  -0.018057   0.000000
    12  O   -0.012076  -0.000068  -0.000000   0.000081   0.233534   0.000004
    13  H    0.000665  -0.000009   0.000000   0.000008  -0.019927  -0.000000
    14  O   -0.003158   0.000000  -0.000000  -0.000594   0.214122   0.000000
    15  H    0.000107   0.000000  -0.000000  -0.000449  -0.016631   0.000000
               7          8          9         10         11         12
     1  Si  -0.016941   0.242897  -0.008950  -0.008982   0.000229  -0.012076
     2  O    0.000308  -0.022532   0.001913  -0.000000  -0.000000  -0.000068
     3  O    0.301427  -0.013735  -0.000283   0.000001   0.000000  -0.000000
     4  O    0.000807  -0.027709   0.000231   0.000040  -0.000005   0.000081
     5  Zr  -0.003320   0.072926  -0.010676   0.225478  -0.018057   0.233534
     6  H   -0.000055   0.000795   0.000029  -0.000000   0.000000   0.000004
     7  H    0.381806   0.000103   0.000045   0.000006   0.000000  -0.000000
     8  O    0.000103   8.129001   0.296914  -0.003095  -0.000837  -0.014034
     9  H    0.000045   0.296914   0.330909  -0.000470  -0.000054   0.004504
    10  O    0.000006  -0.003095  -0.000470   8.172416   0.294721   0.000606
    11  H    0.000000  -0.000837  -0.000054   0.294721   0.395260  -0.000415
    12  O   -0.000000  -0.014034   0.004504   0.000606  -0.000415   8.200401
    13  H    0.000000   0.000524  -0.000107  -0.000110  -0.000003   0.294032
    14  O   -0.000000  -0.000210   0.000041   0.001108   0.000026  -0.000290
    15  H    0.000000   0.000009   0.000001   0.000001  -0.000002  -0.000312
              13         14         15
     1  Si   0.000665  -0.003158   0.000107
     2  O   -0.000009   0.000000   0.000000
     3  O    0.000000  -0.000000  -0.000000
     4  O    0.000008  -0.000594  -0.000449
     5  Zr  -0.019927   0.214122  -0.016631
     6  H   -0.000000   0.000000   0.000000
     7  H    0.000000  -0.000000   0.000000
     8  O    0.000524  -0.000210   0.000009
     9  H   -0.000107   0.000041   0.000001
    10  O   -0.000110   0.001108   0.000001
    11  H   -0.000003   0.000026  -0.000002
    12  O    0.294032  -0.000290  -0.000312
    13  H    0.395948  -0.002347  -0.000019
    14  O   -0.002347   8.168104   0.300149
    15  H   -0.000019   0.300149   0.386256
 Mulliken charges:
               1
     1  Si   1.197302
     2  O   -0.607808
     3  O   -0.586526
     4  O   -0.715547
     5  Zr   1.386383
     6  H    0.338707
     7  H    0.335814
     8  O   -0.661016
     9  H    0.385954
    10  O   -0.681718
    11  H    0.329136
    12  O   -0.705966
    13  H    0.331346
    14  O   -0.676950
    15  H    0.330890
 Sum of Mulliken charges =  -0.00000
 Mulliken charges with hydrogens summed into heavy atoms:
               1
     1  Si   1.197302
     2  O   -0.269101
     3  O   -0.250712
     4  O   -0.715547
     5  Zr   1.386383
     8  O   -0.275062
    10  O   -0.352582
    12  O   -0.374620
    14  O   -0.346061
 Electronic spatial extent (au):  <R**2>=           1800.8074
 Charge=             -0.0000 electrons
 Dipole moment (field-independent basis, Debye):
    X=             -0.6621    Y=              1.2456    Z=              0.0804  Tot=              1.4129
 Quadrupole moment (field-independent basis, Debye-Ang):
   XX=            -71.4242   YY=            -69.9213   ZZ=            -68.2792
   XY=              4.5191   XZ=              2.5851   YZ=             -3.0469
 Traceless Quadrupole moment (field-independent basis, Debye-Ang):
   XX=             -1.5493   YY=             -0.0464   ZZ=              1.5957
   XY=              4.5191   XZ=              2.5851   YZ=             -3.0469
 Octapole moment (field-independent basis, Debye-Ang**2):
  XXX=              9.5524  YYY=             -3.3616  ZZZ=              1.9041  XYY=              2.9718
  XXY=             25.3421  XXZ=            -22.2482  XZZ=             21.7375  YZZ=              1.2384
  YYZ=             -0.1895  XYZ=             -7.1700
 Hexadecapole moment (field-independent basis, Debye-Ang**3):
 XXXX=          -1367.6630 YYYY=           -387.9173 ZZZZ=           -301.6014 XXXY=            -15.8186
 XXXZ=             56.7868 YYYX=             64.7161 YYYZ=             -2.4641 ZZZX=            -38.9949
 ZZZY=            -31.4432 XXYY=           -247.8940 XXZZ=           -236.9974 YYZZ=           -109.9796
 XXYZ=            -12.8869 YYXZ=             26.8666 ZZXY=            -12.3790
 N-N= 6.720693577581D+02 E-N=-3.380082396780D+03  KE= 8.297730969301D+02
 1\1\GINC-GRA600\FOpt\RB3LYP\Gen\H6O7Si1Zr1\SARASHS\24-Jun-2020\0\\#n B
 3LYP/GEN PSEUDO=READ Opt(modredundant)\\Title\\0,1\Si,-1.9259941813,-0
 .1152596794,-0.1682548785\O,-2.5730981575,1.3445871553,-0.5642482345\O
 ,-3.1332357679,-1.2343326436,-0.1690346225\O,-0.5938449007,-0.62114040
 19,-0.9770630949\Zr,0.7993921909,-0.0932187579,0.6100586547\H,-3.20801
 03132,1.3457817471,-1.2881675654\H,-2.8485411317,-2.1206379016,-0.4200
 469959\O,-1.3505047445,0.1693517987,1.398799972\H,-1.4586278261,1.0716
 66008,1.7376398783\O,1.1275984612,-1.52933685,1.9141310066\H,0.8256452
 014,-1.6425446406,2.8214660647\O,0.7740616718,1.737995841,1.4031427835
 \H,1.4947717534,2.3730445904,1.3213991051\O,2.4163574977,-0.0313462571
 ,-0.47824723\H,2.8098702466,0.1403699917,-1.3367648432\\Version=ES64L-
 G16RevB.01\State=1-A\HF=-866.6778871\RMSD=3.458e-09\RMSF=8.721e-03\Dip
 ole=-0.2469951,0.4871486,-0.1033953\Quadrupole=-1.6897677,-0.6190911,2
 .3088588,3.9692572,0.5574282,-1.0636724\PG=C01 [X(H6O7Si1Zr1)]\\@


 LORD, MAN... WERE YE BUT WHYLES WHERE I AM, 
 THE GENTILES YE WAD NE'ER ENVY 'EM.        
 IT'S TRUE, THEY NEEDNA STARVE OR SWEAT,     
 THRO' WINTER'S CAULD OR SIMMER'S HEAT...  
 THEY'VE NAE SAIR WARK TO CRAZE THEIR BANES, 
 AND FILL AULD AGE WITH GRIPS AN' GRANES...  
                                             
 BUT HUMAN BODIES ARE SIC FOOLS              
 FOR A' THEIR COLLEGES AND SCHOOLS,           
 THAT WHEN NAE REAL ILLS PERPLEX THEM,       
 THEY MAK ENOW THEMSELVES TO VEX THEM,       
 AN' AYE THE LESS THEY HAE TO STURT THEM,    
 IN LIKE PROPORTION LESS WILL HURT THEM....  
                                             
                (ROBERT BURNS 'THE TWA DOGS')
 Job cpu time:       0 days  2 hours 44 minutes 28.6 seconds.
 Elapsed time:       0 days  0 hours 10 minutes 38.9 seconds.
 File lengths (MBytes):  RWF=     23 Int=      0 D2E=      0 Chk=      3 Scr=      1
 Normal termination of Gaussian 16 at Wed Jun 24 14:04:40 2020.
