 Entering Gaussian System, Link 0=g16
 Initial command:
 /opt/software/gaussian/g16.b01/l1.exe "/localscratch/sarashs.33453157.0/Gau-28765.inp" -scrdir="/localscratch/sarashs.33453157.0/"
 Entering Link 1 = /opt/software/gaussian/g16.b01/l1.exe PID=     28766.
  
 Copyright (c) 1988-2017, Gaussian, Inc.  All Rights Reserved.
  
 This is part of the Gaussian(R) 16 program.  It is based on
 the Gaussian(R) 09 system (copyright 2009, Gaussian, Inc.),
 the Gaussian(R) 03 system (copyright 2003, Gaussian, Inc.),
 the Gaussian(R) 98 system (copyright 1998, Gaussian, Inc.),
 the Gaussian(R) 94 system (copyright 1995, Gaussian, Inc.),
 the Gaussian 92(TM) system (copyright 1992, Gaussian, Inc.),
 the Gaussian 90(TM) system (copyright 1990, Gaussian, Inc.),
 the Gaussian 88(TM) system (copyright 1988, Gaussian, Inc.),
 the Gaussian 86(TM) system (copyright 1986, Carnegie Mellon
 University), and the Gaussian 82(TM) system (copyright 1983,
 Carnegie Mellon University). Gaussian is a federally registered
 trademark of Gaussian, Inc.
  
 This software contains proprietary and confidential information,
 including trade secrets, belonging to Gaussian, Inc.
  
 This software is provided under written license and may be
 used, copied, transmitted, or stored only in accord with that
 written license.
  
 The following legend is applicable only to US Government
 contracts under FAR:
  
                    RESTRICTED RIGHTS LEGEND
  
 Use, reproduction and disclosure by the US Government is
 subject to restrictions as set forth in subparagraphs (a)
 and (c) of the Commercial Computer Software - Restricted
 Rights clause in FAR 52.227-19.
  
 Gaussian, Inc.
 340 Quinnipiac St., Bldg. 40, Wallingford CT 06492
  
  
 ---------------------------------------------------------------
 Warning -- This program may not be used in any manner that
 competes with the business of Gaussian, Inc. or will provide
 assistance to any competitor of Gaussian, Inc.  The licensee
 of this program is prohibited from giving any competitor of
 Gaussian, Inc. access to this program.  By using this program,
 the user acknowledges that Gaussian, Inc. is engaged in the
 business of creating and licensing software in the field of
 computational chemistry and represents and warrants to the
 licensee that it is not a competitor of Gaussian, Inc. and that
 it will not use this program in any manner prohibited above.
 ---------------------------------------------------------------
  

 Cite this work as:
 Gaussian 16, Revision B.01,
 M. J. Frisch, G. W. Trucks, H. B. Schlegel, G. E. Scuseria, 
 M. A. Robb, J. R. Cheeseman, G. Scalmani, V. Barone, 
 G. A. Petersson, H. Nakatsuji, X. Li, M. Caricato, A. V. Marenich, 
 J. Bloino, B. G. Janesko, R. Gomperts, B. Mennucci, H. P. Hratchian, 
 J. V. Ortiz, A. F. Izmaylov, J. L. Sonnenberg, D. Williams-Young, 
 F. Ding, F. Lipparini, F. Egidi, J. Goings, B. Peng, A. Petrone, 
 T. Henderson, D. Ranasinghe, V. G. Zakrzewski, J. Gao, N. Rega, 
 G. Zheng, W. Liang, M. Hada, M. Ehara, K. Toyota, R. Fukuda, 
 J. Hasegawa, M. Ishida, T. Nakajima, Y. Honda, O. Kitao, H. Nakai, 
 T. Vreven, K. Throssell, J. A. Montgomery, Jr., J. E. Peralta, 
 F. Ogliaro, M. J. Bearpark, J. J. Heyd, E. N. Brothers, K. N. Kudin, 
 V. N. Staroverov, T. A. Keith, R. Kobayashi, J. Normand, 
 K. Raghavachari, A. P. Rendell, J. C. Burant, S. S. Iyengar, 
 J. Tomasi, M. Cossi, J. M. Millam, M. Klene, C. Adamo, R. Cammi, 
 J. W. Ochterski, R. L. Martin, K. Morokuma, O. Farkas, 
 J. B. Foresman, and D. J. Fox, Gaussian, Inc., Wallingford CT, 2016.
 
 ******************************************
 Gaussian 16:  ES64L-G16RevB.01 20-Dec-2017
                24-Jun-2020 
 ******************************************
 %NProcShared=16
 Will use up to   16 processors via shared memory.
 ------------------------------------------
 #n B3LYP/GEN PSEUDO=READ Opt(modredundant)
 ------------------------------------------
 1/18=120,19=15,26=3,38=1/1,3;
 2/9=110,12=2,17=6,18=5,40=1/2;
 3/5=7,11=2,16=1,17=8,25=1,30=1,71=1,74=-5/1,2,3;
 4//1;
 5/5=2,38=5/2;
 6/7=2,8=2,9=2,10=2,28=1/1;
 7//1,2,3,16;
 1/18=20,19=15,26=3/3(2);
 2/9=110/2;
 99//99;
 2/9=110/2;
 3/5=7,6=1,11=2,16=1,17=8,25=1,30=1,71=1,74=-5,82=7/1,2,3;
 4/5=5,16=3,69=1/1;
 5/5=2,38=5/2;
 7//1,2,3,16;
 1/18=20,19=15,26=3/3(-5);
 2/9=110/2;
 6/7=2,8=2,9=2,10=2,19=2,28=1/1;
 99/9=1/99;
 -----
 Title
 -----
 Symbolic Z-matrix:
 Charge =  0 Multiplicity = 1
 Si                   -1.90698  -0.04093  -0.13187 
 O                    -2.77661   1.33183  -0.36828 
 O                    -2.96472  -1.30138  -0.09409 
 O                    -0.62539  -0.3216   -1.09659 
 Zr                    1.12067  -0.01868  -0.06474 
 H                    -3.57833   1.23701  -0.89318 
 H                    -2.59505  -2.1428   -0.38501 
 O                    -1.07346   0.19403   1.32035 
 H                    -1.20745   1.04108   1.76425 
 O                     1.5426   -1.48105   1.18388 
 H                     1.30206  -1.63911   2.10231 
 O                     1.27875   1.79403   0.72236 
 H                     1.93553   2.46765   0.51343 
 O                     2.52982  -0.10739  -1.41692 
 H                     3.30449  -0.61546  -1.67088 
 
 The following ModRedundant input section has been read:
 A       1       4       5 F                                                   
 

 GradGradGradGradGradGradGradGradGradGradGradGradGradGradGradGradGradGrad
 Berny optimization.
 Initialization pass.
                           ----------------------------
                           !    Initial Parameters    !
                           ! (Angstroms and Degrees)  !
 --------------------------                            --------------------------
 ! Name  Definition              Value          Derivative Info.                !
 --------------------------------------------------------------------------------
 ! R1    R(1,2)                  1.6421         estimate D2E/DX2                !
 ! R2    R(1,3)                  1.6459         estimate D2E/DX2                !
 ! R3    R(1,4)                  1.6285         estimate D2E/DX2                !
 ! R4    R(1,5)                  3.0285         estimate D2E/DX2                !
 ! R5    R(1,8)                  1.6908         estimate D2E/DX2                !
 ! R6    R(2,6)                  0.9629         estimate D2E/DX2                !
 ! R7    R(3,7)                  0.964          estimate D2E/DX2                !
 ! R8    R(4,5)                  2.0507         estimate D2E/DX2                !
 ! R9    R(5,10)                 1.9687         estimate D2E/DX2                !
 ! R10   R(5,12)                 1.9825         estimate D2E/DX2                !
 ! R11   R(5,14)                 1.955          estimate D2E/DX2                !
 ! R12   R(8,9)                  0.9657         estimate D2E/DX2                !
 ! R13   R(10,11)                0.9625         estimate D2E/DX2                !
 ! R14   R(12,13)                0.9637         estimate D2E/DX2                !
 ! R15   R(14,15)                0.9606         estimate D2E/DX2                !
 ! A1    A(2,1,3)              107.6477         estimate D2E/DX2                !
 ! A2    A(2,1,4)              118.3958         estimate D2E/DX2                !
 ! A3    A(2,1,5)              121.7677         estimate D2E/DX2                !
 ! A4    A(2,1,8)              105.5776         estimate D2E/DX2                !
 ! A5    A(3,1,4)              112.7909         estimate D2E/DX2                !
 ! A6    A(3,1,5)              130.3605         estimate D2E/DX2                !
 ! A7    A(3,1,8)              113.7977         estimate D2E/DX2                !
 ! A8    A(4,1,8)               98.3257         estimate D2E/DX2                !
 ! A9    A(5,1,8)               59.1435         estimate D2E/DX2                !
 ! A10   A(1,2,6)              115.9167         estimate D2E/DX2                !
 ! A11   A(1,3,7)              114.5237         estimate D2E/DX2                !
 ! A12   A(1,4,5)              110.2761         Frozen                          !
 ! A13   A(1,5,10)             102.8775         estimate D2E/DX2                !
 ! A14   A(1,5,12)              95.4647         estimate D2E/DX2                !
 ! A15   A(1,5,14)             134.8245         estimate D2E/DX2                !
 ! A16   A(4,5,10)             113.0729         estimate D2E/DX2                !
 ! A17   A(4,5,12)             113.7489         estimate D2E/DX2                !
 ! A18   A(4,5,14)             105.0109         estimate D2E/DX2                !
 ! A19   A(10,5,12)            114.2236         estimate D2E/DX2                !
 ! A20   A(10,5,14)            104.5067         estimate D2E/DX2                !
 ! A21   A(12,5,14)            104.9879         estimate D2E/DX2                !
 ! A22   A(1,8,9)              116.6352         estimate D2E/DX2                !
 ! A23   A(5,10,11)            132.3495         estimate D2E/DX2                !
 ! A24   A(5,12,13)            127.3994         estimate D2E/DX2                !
 ! A25   A(5,14,15)            142.0125         estimate D2E/DX2                !
 ! D1    D(3,1,2,6)            -31.5445         estimate D2E/DX2                !
 ! D2    D(4,1,2,6)             97.8074         estimate D2E/DX2                !
 ! D3    D(5,1,2,6)            143.5437         estimate D2E/DX2                !
 ! D4    D(8,1,2,6)           -153.4334         estimate D2E/DX2                !
 ! D5    D(2,1,3,7)            151.7162         estimate D2E/DX2                !
 ! D6    D(4,1,3,7)             19.2636         estimate D2E/DX2                !
 ! D7    D(5,1,3,7)            -22.8018         estimate D2E/DX2                !
 ! D8    D(8,1,3,7)            -91.6497         estimate D2E/DX2                !
 ! D9    D(2,1,5,10)           148.7356         estimate D2E/DX2                !
 ! D10   D(2,1,5,12)            32.3329         estimate D2E/DX2                !
 ! D11   D(2,1,5,14)           -85.1427         estimate D2E/DX2                !
 ! D12   D(3,1,5,10)           -37.4114         estimate D2E/DX2                !
 ! D13   D(3,1,5,12)          -153.8141         estimate D2E/DX2                !
 ! D14   D(3,1,5,14)            88.7103         estimate D2E/DX2                !
 ! D15   D(8,1,5,10)            58.8519         estimate D2E/DX2                !
 ! D16   D(8,1,5,12)           -57.5508         estimate D2E/DX2                !
 ! D17   D(8,1,5,14)          -175.0264         estimate D2E/DX2                !
 ! D18   D(2,1,8,9)             -0.7356         estimate D2E/DX2                !
 ! D19   D(3,1,8,9)           -118.5698         estimate D2E/DX2                !
 ! D20   D(4,1,8,9)            121.931          estimate D2E/DX2                !
 ! D21   D(5,1,8,9)            117.3058         estimate D2E/DX2                !
 ! D22   D(1,5,10,11)          -58.1636         estimate D2E/DX2                !
 ! D23   D(4,5,10,11)          -88.238          estimate D2E/DX2                !
 ! D24   D(12,5,10,11)          43.9575         estimate D2E/DX2                !
 ! D25   D(14,5,10,11)         158.1206         estimate D2E/DX2                !
 ! D26   D(1,5,12,13)         -142.0746         estimate D2E/DX2                !
 ! D27   D(4,5,12,13)         -116.9746         estimate D2E/DX2                !
 ! D28   D(10,5,12,13)         111.1546         estimate D2E/DX2                !
 ! D29   D(14,5,12,13)          -2.7242         estimate D2E/DX2                !
 ! D30   D(1,5,14,15)         -123.4908         estimate D2E/DX2                !
 ! D31   D(4,5,14,15)         -117.16           estimate D2E/DX2                !
 ! D32   D(10,5,14,15)           2.0815         estimate D2E/DX2                !
 ! D33   D(12,5,14,15)         122.6127         estimate D2E/DX2                !
 --------------------------------------------------------------------------------
 Trust Radius=3.00D-01 FncErr=1.00D-07 GrdErr=1.00D-06 EigMax=2.50D+02 EigMin=1.00D-04
 Number of steps in this run=     83 maximum allowed number of steps=    100.
 GradGradGradGradGradGradGradGradGradGradGradGradGradGradGradGradGradGrad

                          Input orientation:                          
 ---------------------------------------------------------------------
 Center     Atomic      Atomic             Coordinates (Angstroms)
 Number     Number       Type             X           Y           Z
 ---------------------------------------------------------------------
      1         14           0       -1.906980   -0.040930   -0.131870
      2          8           0       -2.776610    1.331830   -0.368280
      3          8           0       -2.964720   -1.301380   -0.094090
      4          8           0       -0.625390   -0.321600   -1.096590
      5         40           0        1.120670   -0.018680   -0.064740
      6          1           0       -3.578330    1.237010   -0.893180
      7          1           0       -2.595050   -2.142800   -0.385010
      8          8           0       -1.073460    0.194030    1.320350
      9          1           0       -1.207450    1.041080    1.764250
     10          8           0        1.542600   -1.481050    1.183880
     11          1           0        1.302060   -1.639110    2.102310
     12          8           0        1.278750    1.794030    0.722360
     13          1           0        1.935530    2.467650    0.513430
     14          8           0        2.529820   -0.107390   -1.416920
     15          1           0        3.304490   -0.615460   -1.670880
 ---------------------------------------------------------------------
                    Distance matrix (angstroms):
                    1          2          3          4          5
     1  Si   0.000000
     2  O    1.642138   0.000000
     3  O    1.645897   2.654121   0.000000
     4  O    1.628476   2.809273   2.727167   0.000000
     5  Zr   3.028476   4.135796   4.282125   2.050659   0.000000
     6  H    2.237439   0.962946   2.731023   3.345220   4.933931
     7  H    2.226068   3.479411   0.963991   2.775370   4.291973
     8  O    1.690830   2.654577   2.795310   2.511621   2.603445
     9  H    2.292457   2.663547   3.468219   3.221816   3.144589
    10  O    3.962921   5.383035   4.688435   3.353364   1.968655
    11  H    4.224178   5.618349   4.810784   3.960285   2.711974
    12  O    3.774343   4.224816   5.315561   3.377901   1.982532
    13  H    4.634034   4.926638   6.211853   4.114656   2.679574
    14  O    4.619628   5.597249   5.776284   3.178655   1.954984
    15  H    5.464253   6.516785   6.500750   3.982477   2.775770
                    6          7          8          9         10
     6  H    0.000000
     7  H    3.556430   0.000000
     8  O    3.501699   3.268679   0.000000
     9  H    3.566706   4.084341   0.965657   0.000000
    10  O    6.158405   4.474313   3.109387   3.776340   0.000000
    11  H    6.408060   4.650584   3.100800   3.687186   0.962474
    12  O    5.148929   5.633048   2.906972   2.798867   3.317946
    13  H    5.822000   6.526071   3.856746   3.671236   4.024441
    14  O    6.276242   5.609993   4.535100   5.040438   3.102532
    15  H    7.170054   6.228226   5.363691   5.907778   3.464557
                   11         12         13         14         15
    11  H    0.000000
    12  O    3.700170   0.000000
    13  H    4.448742   0.963730   0.000000
    14  O    4.029707   3.123635   3.272654   0.000000
    15  H    4.392556   3.954347   4.018809   0.960596   0.000000
 Stoichiometry    H6O7SiZr
 Framework group  C1[X(H6O7SiZr)]
 Deg. of freedom    39
 Full point group                 C1      NOp   1
 Largest Abelian subgroup         C1      NOp   1
 Largest concise Abelian subgroup C1      NOp   1
                         Standard orientation:                         
 ---------------------------------------------------------------------
 Center     Atomic      Atomic             Coordinates (Angstroms)
 Number     Number       Type             X           Y           Z
 ---------------------------------------------------------------------
      1         14           0       -1.911426   -0.041023   -0.131047
      2          8           0       -2.780734    1.331172   -0.371876
      3          8           0       -2.968713   -1.301954   -0.096797
      4          8           0       -0.625769   -0.321687   -1.090342
      5         40           0        1.115914   -0.017285   -0.051553
      6          1           0       -3.580256    1.235640   -0.899989
      7          1           0       -2.597456   -2.143380   -0.385673
      8          8           0       -1.083962    0.195248    1.324420
      9          1           0       -1.220168    1.042512    1.767235
     10          8           0        1.533429   -1.478668    1.199703
     11          1           0        1.289211   -1.636266    2.117241
     12          8           0        1.269913    1.795995    0.735043
     13          1           0        1.927222    2.469797    0.528376
     14          8           0        2.530622   -0.106172   -1.397905
     15          1           0        3.306566   -0.614032   -1.648375
 ---------------------------------------------------------------------
 Rotational constants (GHZ):           1.7686986           0.6078188           0.5823716
 General basis read from cards:  (5D, 7F)
 ======================================================================================================
                                       Pseudopotential Parameters
 ======================================================================================================
  Center     Atomic      Valence      Angular      Power
  Number     Number     Electrons     Momentum     of R      Exponent        Coefficient   SO-Coeffient
 ======================================================================================================
    1         14
                                   No pseudopotential on this center.
    2          8
                                   No pseudopotential on this center.
    3          8
                                   No pseudopotential on this center.
    4          8
                                   No pseudopotential on this center.
    5         40           12
                                      F and up 
                                                     0      645.9321873       -0.04258430    0.00000000
                                                     1      134.7547401      -20.22224090    0.00000000
                                                     2       42.3074619     -101.86951720    0.00000000
                                                     2       12.0003227      -41.61957840    0.00000000
                                                     2        4.1260454       -4.69861600    0.00000000
                                      S - F
                                                     0      117.6251862        2.79105590    0.00000000
                                                     1       22.9646089       41.94894590    0.00000000
                                                     2        4.5225298       67.72718660    0.00000000
                                      P - F
                                                     0       47.1953145        4.99111440    0.00000000
                                                     1       48.0356033       20.71931720    0.00000000
                                                     2       19.4541456      195.58677580    0.00000000
                                                     2        4.0512875       48.28771760    0.00000000
                                      D - F
                                                     0       79.9073983        3.00492260    0.00000000
                                                     1       45.8263798       25.93779890    0.00000000
                                                     2       26.9903522      125.12449340    0.00000000
                                                     2        9.6835718       70.76340220    0.00000000
                                                     2        2.7995666       15.04928220    0.00000000
    6          1
                                   No pseudopotential on this center.
    7          1
                                   No pseudopotential on this center.
    8          8
                                   No pseudopotential on this center.
    9          1
                                   No pseudopotential on this center.
   10          8
                                   No pseudopotential on this center.
   11          1
                                   No pseudopotential on this center.
   12          8
                                   No pseudopotential on this center.
   13          1
                                   No pseudopotential on this center.
   14          8
                                   No pseudopotential on this center.
   15          1
                                   No pseudopotential on this center.
 ======================================================================================================
 There are   178 symmetry adapted cartesian basis functions of A   symmetry.
 There are   168 symmetry adapted basis functions of A   symmetry.
   168 basis functions,   339 primitive gaussians,   178 cartesian basis functions
    44 alpha electrons       44 beta electrons
       nuclear repulsion energy       662.8574784441 Hartrees.
 NAtoms=   15 NActive=   15 NUniq=   15 SFac= 1.00D+00 NAtFMM=   60 NAOKFM=F Big=F
 Integral buffers will be    131072 words long.
 Raffenetti 2 integral format.
 Two-electron integral symmetry is turned on.
 One-electron integrals computed using PRISM.
   1 Symmetry operations used in ECPInt.
 ECPInt:  NShTT=    1770 NPrTT=   10201 LenC2=    1666 LenP2D=    6732.
 LDataN:  DoStor=T MaxTD1= 5 Len=  102
 NBasis=   168 RedAO= T EigKep=  8.61D-03  NBF=   168
 NBsUse=   168 1.00D-06 EigRej= -1.00D+00 NBFU=   168
 Defaulting to unpruned grid for atomic number  40.
 ExpMin= 2.43D-02 ExpMax= 1.61D+04 ExpMxC= 2.43D+03 IAcc=3 IRadAn=         5 AccDes= 0.00D+00
 Harris functional with IExCor=  402 and IRadAn=       5 diagonalized for initial guess.
 HarFok:  IExCor=  402 AccDes= 0.00D+00 IRadAn=         5 IDoV= 1 UseB2=F ITyADJ=14
 ICtDFT=  3500011 ScaDFX=  1.000000  1.000000  1.000000  1.000000
 Defaulting to unpruned grid for atomic number  40.
 FoFCou: FMM=F IPFlag=           0 FMFlag=      100000 FMFlg1=           0
         NFxFlg=           0 DoJE=T BraDBF=F KetDBF=T FulRan=T
         wScrn=  0.000000 ICntrl=       500 IOpCl=  0 I1Cent=   200000004 NGrid=           0
         NMat0=    1 NMatS0=      1 NMatT0=    0 NMatD0=    1 NMtDS0=    0 NMtDT0=    0
 Petite list used in FoFCou.
 Requested convergence on RMS density matrix=1.00D-08 within 128 cycles.
 Requested convergence on MAX density matrix=1.00D-06.
 Requested convergence on             energy=1.00D-06.
 No special actions if energy rises.
 Defaulting to unpruned grid for atomic number  40.
 Defaulting to unpruned grid for atomic number  40.
 Defaulting to unpruned grid for atomic number  40.
 Defaulting to unpruned grid for atomic number  40.
 Defaulting to unpruned grid for atomic number  40.
 Defaulting to unpruned grid for atomic number  40.
 Defaulting to unpruned grid for atomic number  40.
 Defaulting to unpruned grid for atomic number  40.
 Defaulting to unpruned grid for atomic number  40.
 Defaulting to unpruned grid for atomic number  40.
 Defaulting to unpruned grid for atomic number  40.
 Defaulting to unpruned grid for atomic number  40.
 Defaulting to unpruned grid for atomic number  40.
 Defaulting to unpruned grid for atomic number  40.
 Defaulting to unpruned grid for atomic number  40.
 Defaulting to unpruned grid for atomic number  40.
 SCF Done:  E(RB3LYP) =  -866.688988236     A.U. after   15 cycles
            NFock= 15  Conv=0.23D-08     -V/T= 2.0445

 **********************************************************************

            Population analysis using the SCF Density.

 **********************************************************************

 Orbital symmetries:
       Occupied  (A) (A) (A) (A) (A) (A) (A) (A) (A) (A) (A) (A)
                 (A) (A) (A) (A) (A) (A) (A) (A) (A) (A) (A) (A)
                 (A) (A) (A) (A) (A) (A) (A) (A) (A) (A) (A) (A)
                 (A) (A) (A) (A) (A) (A) (A) (A)
       Virtual   (A) (A) (A) (A) (A) (A) (A) (A) (A) (A) (A) (A)
                 (A) (A) (A) (A) (A) (A) (A) (A) (A) (A) (A) (A)
                 (A) (A) (A) (A) (A) (A) (A) (A) (A) (A) (A) (A)
                 (A) (A) (A) (A) (A) (A) (A) (A) (A) (A) (A) (A)
                 (A) (A) (A) (A) (A) (A) (A) (A) (A) (A) (A) (A)
                 (A) (A) (A) (A) (A) (A) (A) (A) (A) (A) (A) (A)
                 (A) (A) (A) (A) (A) (A) (A) (A) (A) (A) (A) (A)
                 (A) (A) (A) (A) (A) (A) (A) (A) (A) (A) (A) (A)
                 (A) (A) (A) (A) (A) (A) (A) (A) (A) (A) (A) (A)
                 (A) (A) (A) (A) (A) (A) (A) (A) (A) (A) (A) (A)
                 (A) (A) (A) (A)
 The electronic state is 1-A.
 Alpha  occ. eigenvalues --  -66.19751 -19.16576 -19.15412 -19.15341 -19.13506
 Alpha  occ. eigenvalues --  -19.13082 -19.13079 -19.12190  -5.34107  -3.70101
 Alpha  occ. eigenvalues --   -3.70035  -3.69967  -2.05704  -1.26381  -1.26294
 Alpha  occ. eigenvalues --   -1.25884  -1.03525  -1.00734  -0.99981  -0.95191
 Alpha  occ. eigenvalues --   -0.94454  -0.93963  -0.92988  -0.57945  -0.53273
 Alpha  occ. eigenvalues --   -0.52298  -0.48096  -0.47127  -0.46570  -0.43347
 Alpha  occ. eigenvalues --   -0.39753  -0.39246  -0.37893  -0.36063  -0.34820
 Alpha  occ. eigenvalues --   -0.34039  -0.33819  -0.33385  -0.32266  -0.31614
 Alpha  occ. eigenvalues --   -0.30661  -0.30445  -0.30136  -0.29669
 Alpha virt. eigenvalues --   -0.01667  -0.01022  -0.00165   0.00581   0.01591
 Alpha virt. eigenvalues --    0.02178   0.02968   0.03225   0.04904   0.08334
 Alpha virt. eigenvalues --    0.09398   0.12213   0.14432   0.15247   0.16161
 Alpha virt. eigenvalues --    0.17008   0.17938   0.18921   0.19596   0.23443
 Alpha virt. eigenvalues --    0.23771   0.24614   0.25078   0.26516   0.28680
 Alpha virt. eigenvalues --    0.30576   0.32005   0.33397   0.38416   0.38971
 Alpha virt. eigenvalues --    0.41363   0.56106   0.63383   0.73393   0.78894
 Alpha virt. eigenvalues --    0.80329   0.84310   0.86410   0.87298   0.89507
 Alpha virt. eigenvalues --    0.90669   0.91328   0.92839   0.94930   0.95571
 Alpha virt. eigenvalues --    0.97102   0.98236   1.00276   1.02085   1.03930
 Alpha virt. eigenvalues --    1.07594   1.07850   1.08679   1.10043   1.12644
 Alpha virt. eigenvalues --    1.14598   1.15603   1.19278   1.19777   1.21436
 Alpha virt. eigenvalues --    1.23779   1.25459   1.28323   1.38236   1.47487
 Alpha virt. eigenvalues --    1.48468   1.50762   1.51669   1.52642   1.56406
 Alpha virt. eigenvalues --    1.57632   1.58260   1.60020   1.60899   1.63184
 Alpha virt. eigenvalues --    1.63650   1.64613   1.68051   1.68863   1.70943
 Alpha virt. eigenvalues --    1.73146   1.75359   1.80167   1.80396   1.81669
 Alpha virt. eigenvalues --    1.82823   1.83742   1.85621   1.86748   1.88324
 Alpha virt. eigenvalues --    1.91167   1.92491   2.00831   2.08594   2.13547
 Alpha virt. eigenvalues --    2.35345   2.35673   2.36341   2.37625   2.38472
 Alpha virt. eigenvalues --    2.39768   2.43220   2.55952   2.59293   2.62105
 Alpha virt. eigenvalues --    2.62715   2.63886   2.64201   2.64354   2.64847
 Alpha virt. eigenvalues --    2.65119   2.65327   2.66055   2.66529   2.72315
 Alpha virt. eigenvalues --    2.77412   2.82008   3.40788   3.42203   3.42838
 Alpha virt. eigenvalues --    3.44017   3.45757   3.46477   4.27423
          Condensed to atoms (all electrons):
               1          2          3          4          5          6
     1  Si  11.565561   0.387587   0.394785   0.343773  -0.097450  -0.022047
     2  O    0.387587   7.951348  -0.020223  -0.010601   0.005130   0.304293
     3  O    0.394785  -0.020223   7.943718  -0.016978  -0.000119  -0.001015
     4  O    0.343773  -0.010601  -0.016978   8.268244   0.191596  -0.000297
     5  Zr  -0.097450   0.005130  -0.000119   0.191596   9.786820  -0.000927
     6  H   -0.022047   0.304293  -0.001015  -0.000297  -0.000927   0.379577
     7  H   -0.017752   0.000382   0.301749   0.001215  -0.003034  -0.000044
     8  O    0.260033  -0.018354  -0.012737  -0.039259   0.103114   0.000627
     9  H   -0.009326   0.000929  -0.000221   0.000838  -0.011351   0.000010
    10  O   -0.006854  -0.000000   0.000001   0.000196   0.226590  -0.000000
    11  H    0.000123  -0.000000   0.000000  -0.000082  -0.017125   0.000000
    12  O   -0.008113   0.000001  -0.000000   0.000313   0.226416   0.000000
    13  H    0.000416  -0.000002   0.000000  -0.000020  -0.017182  -0.000000
    14  O   -0.000491   0.000000  -0.000000   0.000682   0.210320   0.000000
    15  H   -0.000004  -0.000000   0.000000  -0.000058  -0.014385  -0.000000
               7          8          9         10         11         12
     1  Si  -0.017752   0.260033  -0.009326  -0.006854   0.000123  -0.008113
     2  O    0.000382  -0.018354   0.000929  -0.000000  -0.000000   0.000001
     3  O    0.301749  -0.012737  -0.000221   0.000001   0.000000  -0.000000
     4  O    0.001215  -0.039259   0.000838   0.000196  -0.000082   0.000313
     5  Zr  -0.003034   0.103114  -0.011351   0.226590  -0.017125   0.226416
     6  H   -0.000044   0.000627   0.000010  -0.000000   0.000000   0.000000
     7  H    0.382229  -0.000197   0.000053  -0.000003  -0.000001  -0.000000
     8  O   -0.000197   8.060911   0.297416  -0.003549  -0.000650  -0.006023
     9  H    0.000053   0.297416   0.360507  -0.000118  -0.000024   0.001611
    10  O   -0.000003  -0.003549  -0.000118   8.176011   0.295102   0.000751
    11  H   -0.000001  -0.000650  -0.000024   0.295102   0.392164  -0.000307
    12  O   -0.000000  -0.006023   0.001611   0.000751  -0.000307   8.192091
    13  H   -0.000000   0.000219  -0.000060  -0.000060  -0.000000   0.291569
    14  O   -0.000000  -0.000051   0.000005   0.000848   0.000012   0.000527
    15  H    0.000000  -0.000001  -0.000000  -0.000524   0.000001  -0.000099
              13         14         15
     1  Si   0.000416  -0.000491  -0.000004
     2  O   -0.000002   0.000000  -0.000000
     3  O    0.000000  -0.000000   0.000000
     4  O   -0.000020   0.000682  -0.000058
     5  Zr  -0.017182   0.210320  -0.014385
     6  H   -0.000000   0.000000  -0.000000
     7  H   -0.000000  -0.000000   0.000000
     8  O    0.000219  -0.000051  -0.000001
     9  H   -0.000060   0.000005  -0.000000
    10  O   -0.000060   0.000848  -0.000524
    11  H   -0.000000   0.000012   0.000001
    12  O    0.291569   0.000527  -0.000099
    13  H    0.398112  -0.001475  -0.000001
    14  O   -0.001475   8.181616   0.298848
    15  H   -0.000001   0.298848   0.383309
 Mulliken charges:
               1
     1  Si   1.209758
     2  O   -0.600491
     3  O   -0.588960
     4  O   -0.739564
     5  Zr   1.411585
     6  H    0.339822
     7  H    0.335403
     8  O   -0.641498
     9  H    0.359732
    10  O   -0.688390
    11  H    0.330787
    12  O   -0.698739
    13  H    0.328482
    14  O   -0.690841
    15  H    0.332914
 Sum of Mulliken charges =  -0.00000
 Mulliken charges with hydrogens summed into heavy atoms:
               1
     1  Si   1.209758
     2  O   -0.260668
     3  O   -0.253558
     4  O   -0.739564
     5  Zr   1.411585
     8  O   -0.281766
    10  O   -0.357604
    12  O   -0.370256
    14  O   -0.357927
 Electronic spatial extent (au):  <R**2>=           1895.8637
 Charge=             -0.0000 electrons
 Dipole moment (field-independent basis, Debye):
    X=              0.1464    Y=             -0.1429    Z=              0.5517  Tot=              0.5884
 Quadrupole moment (field-independent basis, Debye-Ang):
   XX=            -64.9529   YY=            -69.3934   ZZ=            -71.8219
   XY=              0.9170   XZ=              1.7188   YZ=              1.3726
 Traceless Quadrupole moment (field-independent basis, Debye-Ang):
   XX=              3.7699   YY=             -0.6707   ZZ=             -3.0991
   XY=              0.9170   XZ=              1.7188   YZ=              1.3726
 Octapole moment (field-independent basis, Debye-Ang**2):
  XXX=             39.3024  YYY=             -3.8368  ZZZ=             18.3255  XYY=              9.2652
  XXY=             12.5998  XXZ=            -28.7807  XZZ=              7.4948  YZZ=             -4.6024
  YYZ=             -1.4281  XYZ=              3.0394
 Hexadecapole moment (field-independent basis, Debye-Ang**3):
 XXXX=          -1352.3204 YYYY=           -372.6517 ZZZZ=           -318.3589 XXXY=            -72.0177
 XXXZ=             17.4866 YYYX=             76.8345 YYYZ=              8.3576 ZZZX=              4.2136
 ZZZY=            -12.2365 XXYY=           -285.1416 XXZZ=           -272.3526 YYZZ=           -111.0490
 XXYZ=             21.3962 YYXZ=              4.9606 ZZXY=            -33.9046
 N-N= 6.628574784441D+02 E-N=-3.362060810593D+03  KE= 8.297771251183D+02
   1 Symmetry operations used in ECPInt.
 ECPInt:  NShTT=    1770 NPrTT=   10201 LenC2=    1666 LenP2D=    6732.
 LDataN:  DoStor=T MaxTD1= 6 Len=  172
 Calling FoFJK, ICntrl=      2127 FMM=F ISym2X=0 I1Cent= 0 IOpClX= 0 NMat=1 NMatS=1 NMatT=0.
 Defaulting to unpruned grid for atomic number  40.
 Defaulting to unpruned grid for atomic number  40.
 Defaulting to unpruned grid for atomic number  40.
 Defaulting to unpruned grid for atomic number  40.
 Defaulting to unpruned grid for atomic number  40.
 Defaulting to unpruned grid for atomic number  40.
 Defaulting to unpruned grid for atomic number  40.
 Defaulting to unpruned grid for atomic number  40.
 Defaulting to unpruned grid for atomic number  40.
 Defaulting to unpruned grid for atomic number  40.
 Defaulting to unpruned grid for atomic number  40.
 Defaulting to unpruned grid for atomic number  40.
 Defaulting to unpruned grid for atomic number  40.
 Defaulting to unpruned grid for atomic number  40.
 Defaulting to unpruned grid for atomic number  40.
 Defaulting to unpruned grid for atomic number  40.
 ***** Axes restored to original set *****
 -------------------------------------------------------------------
 Center     Atomic                   Forces (Hartrees/Bohr)
 Number     Number              X              Y              Z
 -------------------------------------------------------------------
      1       14           0.000624036    0.000121626    0.000469337
      2        8          -0.000018372    0.000028662   -0.000088106
      3        8          -0.000042324   -0.000042796   -0.000049770
      4        8           0.000191448   -0.000031436   -0.000262450
      5       40          -0.000616146    0.000084471   -0.000147873
      6        1          -0.000013948    0.000005006    0.000015158
      7        1           0.000004451    0.000003249    0.000005173
      8        8           0.000243202    0.000042849   -0.000046838
      9        1          -0.000083403   -0.000070391   -0.000044930
     10        8          -0.000105856    0.000084894    0.000067507
     11        1           0.000016080   -0.000018465    0.000013764
     12        8          -0.000069175   -0.000247375   -0.000057780
     13        1          -0.000035014    0.000024787    0.000035696
     14        8          -0.000092229    0.000029500    0.000076797
     15        1          -0.000002747   -0.000014581    0.000014317
 -------------------------------------------------------------------
 Cartesian Forces:  Max     0.000624036 RMS     0.000172831

 GradGradGradGradGradGradGradGradGradGradGradGradGradGradGradGradGradGrad
 Berny optimization.
 FormGI is forming the generalized inverse of G from B-inverse, IUseBI=4.
 Internal  Forces:  Max     0.000719741 RMS     0.000123075
 Search for a local minimum.
 Step number   1 out of a maximum of   83
 All quantities printed in internal units (Hartrees-Bohrs-Radians)
 Mixed Optimization -- En-DIIS/RFO-DIIS
 Second derivative matrix not updated -- first step.
 ITU=  0
     Eigenvalues ---    0.00230   0.00230   0.00230   0.00573   0.03138
     Eigenvalues ---    0.03732   0.03782   0.04491   0.04789   0.07741
     Eigenvalues ---    0.08426   0.10327   0.12853   0.15177   0.15429
     Eigenvalues ---    0.16000   0.16000   0.16000   0.16000   0.16000
     Eigenvalues ---    0.16000   0.18347   0.18952   0.19142   0.19683
     Eigenvalues ---    0.20440   0.21649   0.22747   0.35457   0.37017
     Eigenvalues ---    0.43277   0.43863   0.54274   0.54624   0.54679
     Eigenvalues ---    0.54844   0.54945   0.553451000.000001000.00000
     Eigenvalues --- 1000.000001000.000001000.000001000.000001000.00000
     Eigenvalues --- 1000.000001000.000001000.000001000.000001000.00000
     Eigenvalues --- 1000.000001000.000001000.000001000.000001000.00000
     Eigenvalues --- 1000.000001000.000001000.000001000.000001000.00000
     Eigenvalues --- 1000.000001000.000001000.000001000.000001000.00000
     Eigenvalues --- 1000.000001000.000001000.000001000.000001000.00000
     Eigenvalues --- 1000.000001000.000001000.00000
 RFO step:  Lambda=-5.44756133D-06 EMin= 2.30000000D-03
 Linear search not attempted -- first point.
 Iteration  1 RMS(Cart)=  0.00152700 RMS(Int)=  0.00000059
 Iteration  2 RMS(Cart)=  0.00000060 RMS(Int)=  0.00000023
 Iteration  1 RMS(Cart)=  0.00000002 RMS(Int)=  0.00000002
 Variable       Old X    -DE/DX   Delta X   Delta X   Delta X     New X
                                 (Linear)    (Quad)   (Total)
    R1        3.10319   0.00006   0.00000   0.00013   0.00013   3.10332
    R2        3.11029   0.00005   0.00000   0.00012   0.00012   3.11042
    R3        3.07737   0.00016   0.00000  -0.00068  -0.00068   3.07670
    R4        5.72299  -0.00072   0.00000  -0.00394  -0.00394   5.71905
    R5        3.19520  -0.00000   0.00000  -0.00001  -0.00001   3.19519
    R6        1.81970   0.00000   0.00000   0.00001   0.00001   1.81971
    R7        1.82168  -0.00000   0.00000  -0.00000  -0.00000   1.82167
    R8        3.87518  -0.00015   0.00000  -0.00396  -0.00396   3.87123
    R9        3.72022  -0.00002   0.00000  -0.00009  -0.00009   3.72013
   R10        3.74644  -0.00022   0.00000  -0.00116  -0.00116   3.74528
   R11        3.69439  -0.00013   0.00000  -0.00065  -0.00065   3.69374
   R12        1.82483  -0.00007   0.00000  -0.00013  -0.00013   1.82470
   R13        1.81881   0.00001   0.00000   0.00002   0.00002   1.81884
   R14        1.82119  -0.00001   0.00000  -0.00003  -0.00003   1.82116
   R15        1.81526   0.00000   0.00000   0.00000   0.00000   1.81527
    A1        1.87881  -0.00004   0.00000  -0.00000  -0.00000   1.87880
    A2        2.06640  -0.00007   0.00000  -0.00031  -0.00031   2.06608
    A3        2.12525   0.00004   0.00000   0.00025   0.00025   2.12550
    A4        1.84268   0.00010   0.00000   0.00044   0.00044   1.84311
    A5        1.96857  -0.00005   0.00000   0.00010   0.00010   1.96867
    A6        2.27522   0.00000   0.00000  -0.00029  -0.00029   2.27493
    A7        1.98615   0.00011   0.00000   0.00058   0.00058   1.98672
    A8        1.71611  -0.00001   0.00000  -0.00076  -0.00076   1.71535
    A9        1.03225  -0.00020   0.00000  -0.00054  -0.00054   1.03171
   A10        2.02313   0.00002   0.00000   0.00010   0.00010   2.02323
   A11        1.99882  -0.00001   0.00000  -0.00006  -0.00006   1.99876
   A12        1.92468  -0.00036   0.00000   0.00000  -0.00000   1.92468
   A13        1.79555  -0.00012   0.00000  -0.00072  -0.00072   1.79483
   A14        1.66617  -0.00014   0.00000  -0.00087  -0.00087   1.66531
   A15        2.35313   0.00014   0.00000   0.00058   0.00058   2.35371
   A16        1.97349   0.00002   0.00000   0.00001   0.00001   1.97350
   A17        1.98529  -0.00005   0.00000  -0.00049  -0.00049   1.98480
   A18        1.83279  -0.00005   0.00000   0.00029   0.00029   1.83308
   A19        1.99358  -0.00006   0.00000  -0.00101  -0.00101   1.99257
   A20        1.82399   0.00006   0.00000   0.00080   0.00080   1.82478
   A21        1.83239   0.00009   0.00000   0.00076   0.00076   1.83314
   A22        2.03567  -0.00012   0.00000  -0.00074  -0.00074   2.03492
   A23        2.30994   0.00004   0.00000   0.00027   0.00027   2.31020
   A24        2.22354   0.00010   0.00000   0.00062   0.00062   2.22416
   A25        2.47859  -0.00004   0.00000  -0.00024  -0.00024   2.47835
    D1       -0.55056   0.00008   0.00000   0.00059   0.00059  -0.54997
    D2        1.70706  -0.00009   0.00000   0.00046   0.00046   1.70752
    D3        2.50531   0.00011   0.00000   0.00007   0.00007   2.50538
    D4       -2.67792  -0.00008   0.00000  -0.00033  -0.00033  -2.67825
    D5        2.64795  -0.00007   0.00000  -0.00038  -0.00038   2.64756
    D6        0.33621   0.00010   0.00000  -0.00004  -0.00004   0.33617
    D7       -0.39797  -0.00010   0.00000   0.00016   0.00016  -0.39781
    D8       -1.59959   0.00008   0.00000   0.00049   0.00049  -1.59910
    D9        2.59593  -0.00008   0.00000  -0.00022  -0.00022   2.59571
   D10        0.56432   0.00005   0.00000   0.00126   0.00126   0.56558
   D11       -1.48602  -0.00001   0.00000   0.00074   0.00074  -1.48528
   D12       -0.65295  -0.00005   0.00000  -0.00084  -0.00084  -0.65379
   D13       -2.68456   0.00008   0.00000   0.00064   0.00064  -2.68393
   D14        1.54829   0.00002   0.00000   0.00012   0.00012   1.54840
   D15        1.02716  -0.00006   0.00000  -0.00031  -0.00031   1.02685
   D16       -1.00445   0.00007   0.00000   0.00117   0.00117  -1.00328
   D17       -3.05479   0.00001   0.00000   0.00065   0.00065  -3.05413
   D18       -0.01284   0.00006   0.00000   0.00116   0.00116  -0.01168
   D19       -2.06943  -0.00001   0.00000   0.00056   0.00056  -2.06887
   D20        2.12810   0.00001   0.00000   0.00065   0.00065   2.12875
   D21        2.04737   0.00006   0.00000   0.00122   0.00122   2.04860
   D22       -1.01515   0.00013   0.00000  -0.00057  -0.00057  -1.01572
   D23       -1.54004  -0.00002   0.00000  -0.00055  -0.00055  -1.54059
   D24        0.76720  -0.00012   0.00000  -0.00226  -0.00226   0.76494
   D25        2.75973  -0.00000   0.00000  -0.00136  -0.00136   2.75837
   D26       -2.47967  -0.00012   0.00000   0.00018   0.00018  -2.47949
   D27       -2.04159   0.00003   0.00000   0.00017   0.00017  -2.04142
   D28        1.94001   0.00010   0.00000   0.00166   0.00166   1.94167
   D29       -0.04755   0.00000   0.00000   0.00074   0.00074  -0.04681
   D30       -2.15532  -0.00000   0.00000   0.00001   0.00001  -2.15532
   D31       -2.04483  -0.00002   0.00000  -0.00003  -0.00003  -2.04486
   D32        0.03633   0.00001   0.00000   0.00047   0.00047   0.03680
   D33        2.14000   0.00001   0.00000   0.00004   0.00004   2.14004
         Item               Value     Threshold  Converged?
 Maximum Force            0.000417     0.000450     YES
 RMS     Force            0.000093     0.000300     YES
 Maximum Displacement     0.005296     0.001800     NO 
 RMS     Displacement     0.001527     0.001200     NO 
 Predicted change in Energy=-2.723167D-06
 GradGradGradGradGradGradGradGradGradGradGradGradGradGradGradGradGradGrad

                          Input orientation:                          
 ---------------------------------------------------------------------
 Center     Atomic      Atomic             Coordinates (Angstroms)
 Number     Number       Type             X           Y           Z
 ---------------------------------------------------------------------
      1         14           0       -1.905756   -0.040757   -0.131638
      2          8           0       -2.775609    1.331899   -0.368290
      3          8           0       -2.963365   -1.301399   -0.093693
      4          8           0       -0.624579   -0.320984   -1.096431
      5         40           0        1.119838   -0.019040   -0.065676
      6          1           0       -3.577587    1.236881   -0.892767
      7          1           0       -2.593616   -2.142718   -0.384799
      8          8           0       -1.070864    0.194469    1.319742
      9          1           0       -1.205480    1.041438    1.763457
     10          8           0        1.540563   -1.480905    1.183871
     11          1           0        1.300280   -1.638236    2.102506
     12          8           0        1.276732    1.792561    0.722667
     13          1           0        1.932727    2.467184    0.514572
     14          8           0        2.529009   -0.107471   -1.417356
     15          1           0        3.303637   -0.615695   -1.671143
 ---------------------------------------------------------------------
                    Distance matrix (angstroms):
                    1          2          3          4          5
     1  Si   0.000000
     2  O    1.642204   0.000000
     3  O    1.645962   2.654226   0.000000
     4  O    1.628118   2.808762   2.727016   0.000000
     5  Zr   3.026391   4.134141   4.279927   2.048564   0.000000
     6  H    2.237564   0.962950   2.731053   3.344948   4.932263
     7  H    2.226091   3.479419   0.963989   2.775292   4.289707
     8  O    1.690823   2.655063   2.795886   2.510529   2.600797
     9  H    2.291925   2.663461   3.468148   3.220652   3.142841
    10  O    3.960013   5.380559   4.685056   3.351571   1.968610
    11  H    4.221612   5.615996   4.807849   3.958969   2.712079
    12  O    3.770826   4.221832   5.312010   3.375081   1.981918
    13  H    4.630477   4.923084   6.208375   4.112058   2.679326
    14  O    4.617863   5.595650   5.774401   3.177057   1.954641
    15  H    5.462454   6.515196   6.498757   3.980957   2.775337
                    6          7          8          9         10
     6  H    0.000000
     7  H    3.556391   0.000000
     8  O    3.502211   3.269049   0.000000
     9  H    3.566597   4.084211   0.965588   0.000000
    10  O    6.155829   4.471035   3.105622   3.773444   0.000000
    11  H    6.405587   4.647969   3.097395   3.684351   0.962486
    12  O    5.146146   5.629609   2.902000   2.794424   3.316308
    13  H    5.818746   6.522871   3.851635   3.666171   4.023575
    14  O    6.274789   5.608002   4.532324   5.038251   3.103180
    15  H    7.168622   6.226080   5.360785   5.905481   3.465274
                   11         12         13         14         15
    11  H    0.000000
    12  O    3.697957   0.000000
    13  H    4.447021   0.963716   0.000000
    14  O    4.030192   3.123783   3.273644   0.000000
    15  H    4.393115   3.954538   4.020060   0.960597   0.000000
 Stoichiometry    H6O7SiZr
 Framework group  C1[X(H6O7SiZr)]
 Deg. of freedom    39
 Full point group                 C1      NOp   1
 Largest Abelian subgroup         C1      NOp   1
 Largest concise Abelian subgroup C1      NOp   1
                         Standard orientation:                         
 ---------------------------------------------------------------------
 Center     Atomic      Atomic             Coordinates (Angstroms)
 Number     Number       Type             X           Y           Z
 ---------------------------------------------------------------------
      1         14           0       -1.910079   -0.041084   -0.130944
      2          8           0       -2.779820    1.330868   -0.372048
      3          8           0       -2.966997   -1.302416   -0.096917
      4          8           0       -0.624564   -0.320942   -1.090058
      5         40           0        1.115188   -0.017304   -0.051943
      6          1           0       -3.579464    1.235045   -0.899930
      7          1           0       -2.595434   -2.143634   -0.385996
      8          8           0       -1.081613    0.195440    1.323904
      9          1           0       -1.218708    1.042544    1.766601
     10          8           0        1.531495   -1.478251    1.200155
     11          1           0        1.287357   -1.635277    2.117825
     12          8           0        1.267468    1.794803    0.736144
     13          1           0        1.923904    2.469759    0.530536
     14          8           0        2.530235   -0.105476   -1.397486
     15          1           0        3.306290   -0.613309   -1.647670
 ---------------------------------------------------------------------
 Rotational constants (GHZ):           1.7692993           0.6084813           0.5830424
 Basis read from rwf:  (5D, 7F)
 Pseudo-potential data read from rwf file.
 There are   178 symmetry adapted cartesian basis functions of A   symmetry.
 There are   168 symmetry adapted basis functions of A   symmetry.
   168 basis functions,   339 primitive gaussians,   178 cartesian basis functions
    44 alpha electrons       44 beta electrons
       nuclear repulsion energy       663.0873383792 Hartrees.
 NAtoms=   15 NActive=   15 NUniq=   15 SFac= 1.00D+00 NAtFMM=   60 NAOKFM=F Big=F
 Integral buffers will be    131072 words long.
 Raffenetti 2 integral format.
 Two-electron integral symmetry is turned on.
 One-electron integrals computed using PRISM.
   1 Symmetry operations used in ECPInt.
 ECPInt:  NShTT=    1770 NPrTT=   10201 LenC2=    1666 LenP2D=    6737.
 LDataN:  DoStor=T MaxTD1= 5 Len=  102
 NBasis=   168 RedAO= T EigKep=  8.59D-03  NBF=   168
 NBsUse=   168 1.00D-06 EigRej= -1.00D+00 NBFU=   168
 Defaulting to unpruned grid for atomic number  40.
 Initial guess from the checkpoint file:  "/localscratch/sarashs.33453157.0/Gau-28766.chk"
 B after Tr=     0.000000    0.000000    0.000000
         Rot=    1.000000   -0.000078    0.000054   -0.000058 Ang=  -0.01 deg.
 Requested convergence on RMS density matrix=1.00D-08 within 128 cycles.
 Requested convergence on MAX density matrix=1.00D-06.
 Requested convergence on             energy=1.00D-06.
 No special actions if energy rises.
 Defaulting to unpruned grid for atomic number  40.
 Defaulting to unpruned grid for atomic number  40.
 Defaulting to unpruned grid for atomic number  40.
 Defaulting to unpruned grid for atomic number  40.
 Defaulting to unpruned grid for atomic number  40.
 Defaulting to unpruned grid for atomic number  40.
 Defaulting to unpruned grid for atomic number  40.
 Defaulting to unpruned grid for atomic number  40.
 Defaulting to unpruned grid for atomic number  40.
 Defaulting to unpruned grid for atomic number  40.
 Defaulting to unpruned grid for atomic number  40.
 Defaulting to unpruned grid for atomic number  40.
 Defaulting to unpruned grid for atomic number  40.
 Defaulting to unpruned grid for atomic number  40.
 Defaulting to unpruned grid for atomic number  40.
 Defaulting to unpruned grid for atomic number  40.
 SCF Done:  E(RB3LYP) =  -866.688990781     A.U. after    8 cycles
            NFock=  8  Conv=0.50D-08     -V/T= 2.0445
   1 Symmetry operations used in ECPInt.
 ECPInt:  NShTT=    1770 NPrTT=   10201 LenC2=    1666 LenP2D=    6737.
 LDataN:  DoStor=T MaxTD1= 6 Len=  172
 Calling FoFJK, ICntrl=      2127 FMM=F ISym2X=0 I1Cent= 0 IOpClX= 0 NMat=1 NMatS=1 NMatT=0.
 Defaulting to unpruned grid for atomic number  40.
 Defaulting to unpruned grid for atomic number  40.
 Defaulting to unpruned grid for atomic number  40.
 Defaulting to unpruned grid for atomic number  40.
 Defaulting to unpruned grid for atomic number  40.
 Defaulting to unpruned grid for atomic number  40.
 Defaulting to unpruned grid for atomic number  40.
 Defaulting to unpruned grid for atomic number  40.
 Defaulting to unpruned grid for atomic number  40.
 Defaulting to unpruned grid for atomic number  40.
 Defaulting to unpruned grid for atomic number  40.
 Defaulting to unpruned grid for atomic number  40.
 Defaulting to unpruned grid for atomic number  40.
 Defaulting to unpruned grid for atomic number  40.
 Defaulting to unpruned grid for atomic number  40.
 Defaulting to unpruned grid for atomic number  40.
 ***** Axes restored to original set *****
 -------------------------------------------------------------------
 Center     Atomic                   Forces (Hartrees/Bohr)
 Number     Number              X              Y              Z
 -------------------------------------------------------------------
      1       14           0.000302693    0.000180849    0.000569804
      2        8           0.000018400   -0.000018742   -0.000044696
      3        8          -0.000000705    0.000012368   -0.000035856
      4        8          -0.000183013   -0.000224753   -0.000811182
      5       40          -0.000169613   -0.000013148    0.000307943
      6        1          -0.000011746   -0.000003960    0.000022693
      7        1           0.000006242   -0.000007489    0.000010512
      8        8          -0.000011130   -0.000032508   -0.000059429
      9        1          -0.000027389    0.000001131    0.000023461
     10        8          -0.000046043   -0.000035164    0.000090096
     11        1           0.000008769    0.000001135   -0.000019786
     12        8           0.000003953    0.000121938    0.000020487
     13        1          -0.000019744    0.000026586    0.000034063
     14        8           0.000127137   -0.000013556   -0.000109214
     15        1           0.000002191    0.000005313    0.000001106
 -------------------------------------------------------------------
 Cartesian Forces:  Max     0.000811182 RMS     0.000175349

 GradGradGradGradGradGradGradGradGradGradGradGradGradGradGradGradGradGrad
 Berny optimization.
 Using GEDIIS/GDIIS optimizer.
 FormGI is forming the generalized inverse of G from B-inverse, IUseBI=4.
 Internal  Forces:  Max     0.000475619 RMS     0.000112473
 Search for a local minimum.
 Step number   2 out of a maximum of   83
 All quantities printed in internal units (Hartrees-Bohrs-Radians)
 Mixed Optimization -- En-DIIS/RFO-DIIS
 Swapping is turned off.
 Update second derivatives using D2CorX and points    1    2
 DE= -2.54D-06 DEPred=-2.72D-06 R= 9.34D-01
 TightC=F SS=  1.41D+00  RLast= 7.84D-03 DXNew= 5.0454D-01 2.3507D-02
 Trust test= 9.34D-01 RLast= 7.84D-03 DXMaxT set to 3.00D-01
 ITU=  1  0
     Eigenvalues ---    0.00229   0.00230   0.00230   0.00578   0.03062
     Eigenvalues ---    0.03729   0.03768   0.04403   0.04772   0.07474
     Eigenvalues ---    0.07749   0.10900   0.12731   0.15041   0.15391
     Eigenvalues ---    0.15859   0.16000   0.16000   0.16000   0.16000
     Eigenvalues ---    0.16110   0.18287   0.19094   0.19506   0.19824
     Eigenvalues ---    0.21624   0.22333   0.24311   0.35469   0.37105
     Eigenvalues ---    0.43294   0.43920   0.54318   0.54626   0.54678
     Eigenvalues ---    0.54845   0.54968   0.553461000.000001000.00000
     Eigenvalues --- 1000.000001000.000001000.000001000.000001000.00000
     Eigenvalues --- 1000.000001000.000001000.000001000.000001000.00000
     Eigenvalues --- 1000.000001000.000001000.000001000.000001000.00000
     Eigenvalues --- 1000.000001000.000001000.000001000.000001000.00000
     Eigenvalues --- 1000.000001000.000001000.000001000.000001000.00000
     Eigenvalues --- 1000.000001000.000001000.000001000.000001000.00000
     Eigenvalues --- 1000.000001000.000001000.00000
 En-DIIS/RFO-DIIS/Sim-DIIS IScMMF=       -3 using points:     2    1
 RFO step:  Lambda=-7.43095785D-07.
 DidBck=F Rises=F RFO-DIIS coefs:    1.04743   -0.04743
 Iteration  1 RMS(Cart)=  0.00107894 RMS(Int)=  0.00000037
 Iteration  2 RMS(Cart)=  0.00000053 RMS(Int)=  0.00000010
 Iteration  1 RMS(Cart)=  0.00000006 RMS(Int)=  0.00000006
 Variable       Old X    -DE/DX   Delta X   Delta X   Delta X     New X
                                 (Linear)    (Quad)   (Total)
    R1        3.10332  -0.00002   0.00001  -0.00003  -0.00003   3.10329
    R2        3.11042  -0.00001   0.00001  -0.00001  -0.00000   3.11042
    R3        3.07670   0.00035  -0.00003   0.00005   0.00001   3.07671
    R4        5.71905  -0.00033  -0.00019   0.00025   0.00006   5.71911
    R5        3.19519  -0.00006  -0.00000  -0.00014  -0.00014   3.19505
    R6        1.81971  -0.00000   0.00000  -0.00000  -0.00000   1.81971
    R7        1.82167   0.00001  -0.00000   0.00001   0.00001   1.82169
    R8        3.87123   0.00038  -0.00019   0.00025   0.00006   3.87128
    R9        3.72013   0.00006  -0.00000   0.00029   0.00029   3.72042
   R10        3.74528   0.00016  -0.00006   0.00068   0.00063   3.74591
   R11        3.69374   0.00017  -0.00003   0.00072   0.00069   3.69442
   R12        1.82470   0.00002  -0.00001   0.00002   0.00001   1.82471
   R13        1.81884  -0.00002   0.00000  -0.00003  -0.00003   1.81880
   R14        1.82116  -0.00000  -0.00000  -0.00001  -0.00001   1.82115
   R15        1.81527  -0.00000   0.00000  -0.00000  -0.00000   1.81526
    A1        1.87880  -0.00002  -0.00000  -0.00007  -0.00007   1.87874
    A2        2.06608  -0.00008  -0.00001  -0.00003  -0.00005   2.06604
    A3        2.12550   0.00000   0.00001  -0.00002  -0.00001   2.12549
    A4        1.84311   0.00004   0.00002   0.00031   0.00033   1.84344
    A5        1.96867  -0.00012   0.00000  -0.00024  -0.00023   1.96844
    A6        2.27493   0.00002  -0.00001   0.00005   0.00003   2.27496
    A7        1.98672   0.00003   0.00003  -0.00001   0.00002   1.98674
    A8        1.71535   0.00018  -0.00004   0.00009   0.00006   1.71541
    A9        1.03171  -0.00009  -0.00003   0.00011   0.00008   1.03179
   A10        2.02323   0.00000   0.00000   0.00001   0.00001   2.02324
   A11        1.99876  -0.00000  -0.00000  -0.00001  -0.00002   1.99874
   A12        1.92468  -0.00048  -0.00000   0.00000  -0.00000   1.92468
   A13        1.79483  -0.00010  -0.00003  -0.00062  -0.00066   1.79417
   A14        1.66531  -0.00010  -0.00004  -0.00020  -0.00024   1.66507
   A15        2.35371   0.00014   0.00003   0.00032   0.00034   2.35406
   A16        1.97350  -0.00000   0.00000   0.00008   0.00008   1.97358
   A17        1.98480   0.00001  -0.00002  -0.00052  -0.00054   1.98425
   A18        1.83308  -0.00006   0.00001   0.00024   0.00025   1.83333
   A19        1.99257   0.00001  -0.00005  -0.00028  -0.00033   1.99224
   A20        1.82478   0.00002   0.00004   0.00037   0.00041   1.82519
   A21        1.83314   0.00002   0.00004   0.00028   0.00032   1.83346
   A22        2.03492  -0.00000  -0.00004  -0.00007  -0.00011   2.03482
   A23        2.31020   0.00001   0.00001   0.00006   0.00007   2.31027
   A24        2.22416   0.00009   0.00003   0.00057   0.00060   2.22476
   A25        2.47835   0.00000  -0.00001   0.00000  -0.00001   2.47834
    D1       -0.54997   0.00007   0.00003   0.00051   0.00054  -0.54943
    D2        1.70752  -0.00018   0.00002   0.00009   0.00011   1.70763
    D3        2.50538   0.00012   0.00000   0.00009   0.00009   2.50547
    D4       -2.67825   0.00003  -0.00002   0.00039   0.00038  -2.67787
    D5        2.64756  -0.00005  -0.00002  -0.00014  -0.00016   2.64741
    D6        0.33617   0.00017  -0.00000   0.00016   0.00015   0.33633
    D7       -0.39781  -0.00010   0.00001   0.00034   0.00034  -0.39746
    D8       -1.59910   0.00000   0.00002   0.00019   0.00022  -1.59889
    D9        2.59571  -0.00006  -0.00001  -0.00126  -0.00127   2.59444
   D10        0.56558  -0.00001   0.00006  -0.00077  -0.00071   0.56487
   D11       -1.48528  -0.00002   0.00004  -0.00117  -0.00113  -1.48641
   D12       -0.65379  -0.00000  -0.00004  -0.00179  -0.00183  -0.65563
   D13       -2.68393   0.00004   0.00003  -0.00130  -0.00127  -2.68520
   D14        1.54840   0.00003   0.00001  -0.00170  -0.00170   1.54671
   D15        1.02685  -0.00005  -0.00001  -0.00175  -0.00176   1.02509
   D16       -1.00328  -0.00001   0.00006  -0.00125  -0.00120  -1.00448
   D17       -3.05413  -0.00001   0.00003  -0.00165  -0.00162  -3.05575
   D18       -0.01168   0.00002   0.00006   0.00053   0.00058  -0.01110
   D19       -2.06887   0.00000   0.00003   0.00041   0.00044  -2.06843
   D20        2.12875   0.00002   0.00003   0.00064   0.00067   2.12942
   D21        2.04860   0.00001   0.00006   0.00034   0.00040   2.04899
   D22       -1.01572   0.00012  -0.00003  -0.00021  -0.00024  -1.01596
   D23       -1.54059  -0.00007  -0.00003   0.00011   0.00009  -1.54051
   D24        0.76494  -0.00005  -0.00011  -0.00085  -0.00095   0.76399
   D25        2.75837  -0.00000  -0.00006  -0.00042  -0.00049   2.75788
   D26       -2.47949  -0.00011   0.00001  -0.00074  -0.00073  -2.48022
   D27       -2.04142   0.00006   0.00001  -0.00055  -0.00054  -2.04196
   D28        1.94167   0.00005   0.00008   0.00013   0.00021   1.94188
   D29       -0.04681   0.00000   0.00003  -0.00035  -0.00032  -0.04713
   D30       -2.15532  -0.00001   0.00000  -0.00044  -0.00044  -2.15575
   D31       -2.04486   0.00001  -0.00000  -0.00104  -0.00105  -2.04590
   D32        0.03680  -0.00002   0.00002  -0.00068  -0.00065   0.03614
   D33        2.14004   0.00001   0.00000  -0.00069  -0.00069   2.13934
         Item               Value     Threshold  Converged?
 Maximum Force            0.000168     0.000450     YES
 RMS     Force            0.000038     0.000300     YES
 Maximum Displacement     0.003378     0.001800     NO 
 RMS     Displacement     0.001079     0.001200     YES
 Predicted change in Energy=-3.714405D-07
 GradGradGradGradGradGradGradGradGradGradGradGradGradGradGradGradGradGrad

                          Input orientation:                          
 ---------------------------------------------------------------------
 Center     Atomic      Atomic             Coordinates (Angstroms)
 Number     Number       Type             X           Y           Z
 ---------------------------------------------------------------------
      1         14           0       -1.905647   -0.040737   -0.131475
      2          8           0       -2.775552    1.332006   -0.367338
      3          8           0       -2.963261   -1.301402   -0.094503
      4          8           0       -0.624704   -0.320485   -1.096731
      5         40           0        1.119996   -0.019020   -0.066254
      6          1           0       -3.577703    1.237204   -0.891586
      7          1           0       -2.593496   -2.142499   -0.386248
      8          8           0       -1.070555    0.193189    1.319913
      9          1           0       -1.205454    1.039651    1.764520
     10          8           0        1.539757   -1.480167    1.184695
     11          1           0        1.299401   -1.636575    2.103451
     12          8           0        1.276649    1.793150    0.721665
     13          1           0        1.932558    2.468000    0.514058
     14          8           0        2.529568   -0.108418   -1.417976
     15          1           0        3.304373   -0.616666   -1.671170
 ---------------------------------------------------------------------
                    Distance matrix (angstroms):
                    1          2          3          4          5
     1  Si   0.000000
     2  O    1.642191   0.000000
     3  O    1.645962   2.654150   0.000000
     4  O    1.628125   2.808717   2.726812   0.000000
     5  Zr   3.026423   4.134152   4.279986   2.048595   0.000000
     6  H    2.237560   0.962949   2.730824   3.344949   4.932306
     7  H    2.226084   3.479323   0.963994   2.775007   4.289706
     8  O    1.690747   2.655322   2.795838   2.510540   2.600962
     9  H    2.291790   2.663737   3.467906   3.220869   3.143284
    10  O    3.959175   5.379499   4.684599   3.351814   1.968761
    11  H    4.220654   5.614491   4.807663   3.959221   2.712247
    12  O    3.770675   4.221245   5.312176   3.374783   1.982250
    13  H    4.630582   4.922768   6.208686   4.112162   2.679979
    14  O    4.618528   5.596692   5.774596   3.177673   1.955004
    15  H    5.463210   6.516348   6.499075   3.981878   2.775688
                    6          7          8          9         10
     6  H    0.000000
     7  H    3.556180   0.000000
     8  O    3.502354   3.268910   0.000000
     9  H    3.566719   4.083936   0.965593   0.000000
    10  O    6.154953   4.471054   3.103568   3.771188   0.000000
    11  H    6.404294   4.648570   3.094941   3.681217   0.962469
    12  O    5.145521   5.629816   2.902954   2.795737   3.316357
    13  H    5.818391   6.523222   3.852643   3.667555   4.023937
    14  O    6.275870   5.607828   4.532979   5.039518   3.104081
    15  H    7.169906   6.226078   5.361198   5.906428   3.466334
                   11         12         13         14         15
    11  H    0.000000
    12  O    3.697683   0.000000
    13  H    4.446863   0.963712   0.000000
    14  O    4.031008   3.124713   3.275227   0.000000
    15  H    4.394074   3.955318   4.021476   0.960596   0.000000
 Stoichiometry    H6O7SiZr
 Framework group  C1[X(H6O7SiZr)]
 Deg. of freedom    39
 Full point group                 C1      NOp   1
 Largest Abelian subgroup         C1      NOp   1
 Largest concise Abelian subgroup C1      NOp   1
                         Standard orientation:                         
 ---------------------------------------------------------------------
 Center     Atomic      Atomic             Coordinates (Angstroms)
 Number     Number       Type             X           Y           Z
 ---------------------------------------------------------------------
      1         14           0       -1.910012   -0.041001   -0.130936
      2          8           0       -2.779703    1.331027   -0.371701
      3          8           0       -2.966992   -1.302305   -0.097846
      4          8           0       -0.624548   -0.320625   -1.090199
      5         40           0        1.115291   -0.017332   -0.052067
      6          1           0       -3.579419    1.235348   -0.899499
      7          1           0       -2.595387   -2.143375   -0.387320
      8          8           0       -1.081631    0.194478    1.324042
      9          1           0       -1.219068    1.041169    1.767433
     10          8           0        1.530313   -1.477329    1.201802
     11          1           0        1.285908   -1.633238    2.119574
     12          8           0        1.267248    1.795493    0.735263
     13          1           0        1.923665    2.470610    0.530142
     14          8           0        2.531010   -0.106799   -1.397346
     15          1           0        3.307269   -0.614738   -1.646677
 ---------------------------------------------------------------------
 Rotational constants (GHZ):           1.7690317           0.6084414           0.5830490
 Basis read from rwf:  (5D, 7F)
 Pseudo-potential data read from rwf file.
 There are   178 symmetry adapted cartesian basis functions of A   symmetry.
 There are   168 symmetry adapted basis functions of A   symmetry.
   168 basis functions,   339 primitive gaussians,   178 cartesian basis functions
    44 alpha electrons       44 beta electrons
       nuclear repulsion energy       663.0717244401 Hartrees.
 NAtoms=   15 NActive=   15 NUniq=   15 SFac= 1.00D+00 NAtFMM=   60 NAOKFM=F Big=F
 Integral buffers will be    131072 words long.
 Raffenetti 2 integral format.
 Two-electron integral symmetry is turned on.
 One-electron integrals computed using PRISM.
   1 Symmetry operations used in ECPInt.
 ECPInt:  NShTT=    1770 NPrTT=   10201 LenC2=    1666 LenP2D=    6737.
 LDataN:  DoStor=T MaxTD1= 5 Len=  102
 NBasis=   168 RedAO= T EigKep=  8.58D-03  NBF=   168
 NBsUse=   168 1.00D-06 EigRej= -1.00D+00 NBFU=   168
 Defaulting to unpruned grid for atomic number  40.
 Initial guess from the checkpoint file:  "/localscratch/sarashs.33453157.0/Gau-28766.chk"
 B after Tr=     0.000000    0.000000   -0.000000
         Rot=    1.000000    0.000118    0.000064    0.000026 Ang=   0.02 deg.
 Requested convergence on RMS density matrix=1.00D-08 within 128 cycles.
 Requested convergence on MAX density matrix=1.00D-06.
 Requested convergence on             energy=1.00D-06.
 No special actions if energy rises.
 Defaulting to unpruned grid for atomic number  40.
 Defaulting to unpruned grid for atomic number  40.
 Defaulting to unpruned grid for atomic number  40.
 Defaulting to unpruned grid for atomic number  40.
 Defaulting to unpruned grid for atomic number  40.
 Defaulting to unpruned grid for atomic number  40.
 Defaulting to unpruned grid for atomic number  40.
 Defaulting to unpruned grid for atomic number  40.
 Defaulting to unpruned grid for atomic number  40.
 Defaulting to unpruned grid for atomic number  40.
 Defaulting to unpruned grid for atomic number  40.
 Defaulting to unpruned grid for atomic number  40.
 Defaulting to unpruned grid for atomic number  40.
 Defaulting to unpruned grid for atomic number  40.
 Defaulting to unpruned grid for atomic number  40.
 Defaulting to unpruned grid for atomic number  40.
 SCF Done:  E(RB3LYP) =  -866.688991214     A.U. after    7 cycles
            NFock=  7  Conv=0.72D-08     -V/T= 2.0445
   1 Symmetry operations used in ECPInt.
 ECPInt:  NShTT=    1770 NPrTT=   10201 LenC2=    1666 LenP2D=    6737.
 LDataN:  DoStor=T MaxTD1= 6 Len=  172
 Calling FoFJK, ICntrl=      2127 FMM=F ISym2X=0 I1Cent= 0 IOpClX= 0 NMat=1 NMatS=1 NMatT=0.
 Defaulting to unpruned grid for atomic number  40.
 Defaulting to unpruned grid for atomic number  40.
 Defaulting to unpruned grid for atomic number  40.
 Defaulting to unpruned grid for atomic number  40.
 Defaulting to unpruned grid for atomic number  40.
 Defaulting to unpruned grid for atomic number  40.
 Defaulting to unpruned grid for atomic number  40.
 Defaulting to unpruned grid for atomic number  40.
 Defaulting to unpruned grid for atomic number  40.
 Defaulting to unpruned grid for atomic number  40.
 Defaulting to unpruned grid for atomic number  40.
 Defaulting to unpruned grid for atomic number  40.
 Defaulting to unpruned grid for atomic number  40.
 Defaulting to unpruned grid for atomic number  40.
 Defaulting to unpruned grid for atomic number  40.
 Defaulting to unpruned grid for atomic number  40.
 ***** Axes restored to original set *****
 -------------------------------------------------------------------
 Center     Atomic                   Forces (Hartrees/Bohr)
 Number     Number              X              Y              Z
 -------------------------------------------------------------------
      1       14           0.000271534    0.000131349    0.000519277
      2        8           0.000029180   -0.000006014   -0.000023295
      3        8          -0.000010796    0.000004400   -0.000027714
      4        8          -0.000111220   -0.000208275   -0.000794367
      5       40          -0.000060450    0.000065017    0.000337688
      6        1          -0.000010097   -0.000008931    0.000023121
      7        1           0.000004799   -0.000000661    0.000013448
      8        8          -0.000017540    0.000025922   -0.000044349
      9        1          -0.000026138    0.000000350    0.000023568
     10        8          -0.000013595    0.000028567   -0.000021418
     11        1          -0.000010945    0.000005183   -0.000011251
     12        8          -0.000015677   -0.000049020   -0.000039522
     13        1          -0.000020768    0.000016025    0.000022102
     14        8          -0.000010860   -0.000004026    0.000015034
     15        1           0.000002572    0.000000115    0.000007679
 -------------------------------------------------------------------
 Cartesian Forces:  Max     0.000794367 RMS     0.000162227

 GradGradGradGradGradGradGradGradGradGradGradGradGradGradGradGradGradGrad
 Berny optimization.
 Using GEDIIS/GDIIS optimizer.
 FormGI is forming the generalized inverse of G from B-inverse, IUseBI=4.
 Internal  Forces:  Max     0.000459170 RMS     0.000104650
 Search for a local minimum.
 Step number   3 out of a maximum of   83
 All quantities printed in internal units (Hartrees-Bohrs-Radians)
 Mixed Optimization -- En-DIIS/RFO-DIIS
 Swapping is turned off.
 Update second derivatives using D2CorX and points    1    2    3
 DE= -4.33D-07 DEPred=-3.71D-07 R= 1.17D+00
 Trust test= 1.17D+00 RLast= 5.24D-03 DXMaxT set to 3.00D-01
 ITU=  0  1  0
     Eigenvalues ---    0.00224   0.00230   0.00235   0.00659   0.02323
     Eigenvalues ---    0.03581   0.03744   0.04280   0.04745   0.06125
     Eigenvalues ---    0.07945   0.11153   0.12052   0.14841   0.15479
     Eigenvalues ---    0.15690   0.16000   0.16000   0.16000   0.16026
     Eigenvalues ---    0.16255   0.17999   0.19052   0.19461   0.19999
     Eigenvalues ---    0.21436   0.23017   0.29320   0.36720   0.36825
     Eigenvalues ---    0.43300   0.43936   0.54321   0.54628   0.54686
     Eigenvalues ---    0.54845   0.54940   0.553461000.000001000.00000
     Eigenvalues --- 1000.000001000.000001000.000001000.000001000.00000
     Eigenvalues --- 1000.000001000.000001000.000001000.000001000.00000
     Eigenvalues --- 1000.000001000.000001000.000001000.000001000.00000
     Eigenvalues --- 1000.000001000.000001000.000001000.000001000.00000
     Eigenvalues --- 1000.000001000.000001000.000001000.000001000.00000
     Eigenvalues --- 1000.000001000.000001000.000001000.000001000.00000
     Eigenvalues --- 1000.000001000.000001000.00000
 En-DIIS/RFO-DIIS/Sim-DIIS IScMMF=       -3 using points:     3    2    1
 RFO step:  Lambda=-5.01856558D-07.
 DidBck=F Rises=F RFO-DIIS coefs:    1.35585   -0.16010   -0.19575
 Iteration  1 RMS(Cart)=  0.00072235 RMS(Int)=  0.00000039
 Iteration  2 RMS(Cart)=  0.00000039 RMS(Int)=  0.00000022
 Iteration  1 RMS(Cart)=  0.00000011 RMS(Int)=  0.00000010
 Variable       Old X    -DE/DX   Delta X   Delta X   Delta X     New X
                                 (Linear)    (Quad)   (Total)
    R1        3.10329  -0.00002   0.00002  -0.00008  -0.00007   3.10322
    R2        3.11042   0.00000   0.00002  -0.00001   0.00001   3.11043
    R3        3.07671   0.00037  -0.00013   0.00029   0.00016   3.07687
    R4        5.71911  -0.00032  -0.00075   0.00096   0.00021   5.71932
    R5        3.19505  -0.00004  -0.00005  -0.00015  -0.00021   3.19484
    R6        1.81971  -0.00000   0.00000  -0.00001  -0.00001   1.81970
    R7        1.82169  -0.00000   0.00000   0.00000   0.00000   1.82169
    R8        3.87128   0.00033  -0.00075   0.00085   0.00010   3.87138
    R9        3.72042  -0.00005   0.00009  -0.00021  -0.00013   3.72029
   R10        3.74591  -0.00004  -0.00000   0.00005   0.00004   3.74595
   R11        3.69442  -0.00002   0.00012   0.00013   0.00025   3.69467
   R12        1.82471   0.00001  -0.00002   0.00005   0.00003   1.82473
   R13        1.81880  -0.00001  -0.00001  -0.00003  -0.00004   1.81877
   R14        1.82115  -0.00001  -0.00001  -0.00002  -0.00002   1.82113
   R15        1.81526  -0.00000  -0.00000  -0.00000  -0.00000   1.81526
    A1        1.87874  -0.00001  -0.00002  -0.00007  -0.00010   1.87864
    A2        2.06604  -0.00008  -0.00008  -0.00019  -0.00027   2.06577
    A3        2.12549  -0.00001   0.00005   0.00016   0.00021   2.12570
    A4        1.84344   0.00000   0.00020  -0.00012   0.00008   1.84352
    A5        1.96844  -0.00011  -0.00006  -0.00004  -0.00010   1.96834
    A6        2.27496   0.00002  -0.00005  -0.00012  -0.00016   2.27480
    A7        1.98674   0.00004   0.00012   0.00009   0.00021   1.98695
    A8        1.71541   0.00018  -0.00013   0.00037   0.00025   1.71566
    A9        1.03179  -0.00008  -0.00008   0.00029   0.00022   1.03201
   A10        2.02324  -0.00001   0.00002  -0.00007  -0.00005   2.02319
   A11        1.99874  -0.00000  -0.00002  -0.00003  -0.00004   1.99870
   A12        1.92468  -0.00046  -0.00000   0.00000  -0.00000   1.92468
   A13        1.79417  -0.00006  -0.00038  -0.00024  -0.00061   1.79356
   A14        1.66507  -0.00011  -0.00025  -0.00041  -0.00066   1.66441
   A15        2.35406   0.00013   0.00024   0.00025   0.00048   2.35454
   A16        1.97358   0.00001   0.00003  -0.00014  -0.00011   1.97348
   A17        1.98425   0.00001  -0.00029  -0.00037  -0.00066   1.98360
   A18        1.83333  -0.00007   0.00015   0.00029   0.00043   1.83376
   A19        1.99224   0.00002  -0.00032  -0.00005  -0.00037   1.99187
   A20        1.82519  -0.00002   0.00030   0.00013   0.00043   1.82562
   A21        1.83346   0.00003   0.00026   0.00027   0.00053   1.83399
   A22        2.03482   0.00000  -0.00018   0.00005  -0.00013   2.03468
   A23        2.31027  -0.00002   0.00008  -0.00015  -0.00007   2.31021
   A24        2.22476   0.00006   0.00033   0.00055   0.00089   2.22565
   A25        2.47834  -0.00001  -0.00005  -0.00006  -0.00011   2.47823
    D1       -0.54943   0.00006   0.00031   0.00052   0.00082  -0.54860
    D2        1.70763  -0.00016   0.00013   0.00023   0.00036   1.70799
    D3        2.50547   0.00011   0.00005   0.00024   0.00029   2.50576
    D4       -2.67787   0.00003   0.00007   0.00052   0.00059  -2.67729
    D5        2.64741  -0.00004  -0.00013   0.00009  -0.00004   2.64736
    D6        0.33633   0.00016   0.00005   0.00044   0.00049   0.33681
    D7       -0.39746  -0.00009   0.00015   0.00037   0.00053  -0.39694
    D8       -1.59889  -0.00002   0.00017  -0.00006   0.00011  -1.59878
    D9        2.59444  -0.00004  -0.00050   0.00032  -0.00017   2.59426
   D10        0.56487  -0.00002  -0.00001   0.00055   0.00055   0.56541
   D11       -1.48641  -0.00003  -0.00026   0.00046   0.00020  -1.48621
   D12       -0.65563   0.00002  -0.00082  -0.00001  -0.00083  -0.65646
   D13       -2.68520   0.00004  -0.00033   0.00021  -0.00011  -2.68531
   D14        1.54671   0.00003  -0.00058   0.00012  -0.00046   1.54625
   D15        1.02509  -0.00000  -0.00069   0.00041  -0.00028   1.02481
   D16       -1.00448   0.00002  -0.00020   0.00063   0.00044  -1.00404
   D17       -3.05575   0.00001  -0.00045   0.00054   0.00009  -3.05566
   D18       -0.01110   0.00002   0.00043   0.00047   0.00091  -0.01019
   D19       -2.06843   0.00001   0.00027   0.00059   0.00086  -2.06757
   D20        2.12942   0.00001   0.00037   0.00038   0.00074   2.13016
   D21        2.04899   0.00001   0.00038   0.00073   0.00111   2.05010
   D22       -1.01596   0.00012  -0.00020   0.00187   0.00168  -1.01428
   D23       -1.54051  -0.00008  -0.00008   0.00199   0.00192  -1.53859
   D24        0.76399  -0.00003  -0.00078   0.00127   0.00049   0.76447
   D25        2.75788   0.00001  -0.00044   0.00164   0.00121   2.75908
   D26       -2.48022  -0.00010  -0.00022   0.00014  -0.00009  -2.48030
   D27       -2.04196   0.00007  -0.00016   0.00000  -0.00016  -2.04212
   D28        1.94188   0.00002   0.00040   0.00062   0.00101   1.94289
   D29       -0.04713   0.00001   0.00003   0.00032   0.00035  -0.04677
   D30       -2.15575  -0.00002  -0.00015  -0.00125  -0.00140  -2.15716
   D31       -2.04590   0.00001  -0.00038  -0.00126  -0.00164  -2.04754
   D32        0.03614  -0.00001  -0.00014  -0.00123  -0.00137   0.03477
   D33        2.13934   0.00002  -0.00024  -0.00111  -0.00134   2.13800
         Item               Value     Threshold  Converged?
 Maximum Force            0.000062     0.000450     YES
 RMS     Force            0.000023     0.000300     YES
 Maximum Displacement     0.003201     0.001800     NO 
 RMS     Displacement     0.000722     0.001200     YES
 Predicted change in Energy=-2.498984D-07
 GradGradGradGradGradGradGradGradGradGradGradGradGradGradGradGradGradGrad

                          Input orientation:                          
 ---------------------------------------------------------------------
 Center     Atomic      Atomic             Coordinates (Angstroms)
 Number     Number       Type             X           Y           Z
 ---------------------------------------------------------------------
      1         14           0       -1.905345   -0.040601   -0.131178
      2          8           0       -2.775409    1.331984   -0.367131
[...]
 ! A12   A(1,4,5)              110.276          -DE/DX =   -0.0004              !
 ! A13   A(1,5,10)             102.7089         -DE/DX =    0.0                 !
 ! A14   A(1,5,12)              95.328          -DE/DX =   -0.0001              !
 ! A15   A(1,5,14)             134.975          -DE/DX =    0.0001              !
 ! A16   A(4,5,10)             113.0809         -DE/DX =    0.0                 !
 ! A17   A(4,5,12)             113.5722         -DE/DX =    0.0                 !
 ! A18   A(4,5,14)             105.1203         -DE/DX =   -0.0001              !
 ! A19   A(10,5,12)            114.1468         -DE/DX =    0.0                 !
 ! A20   A(10,5,14)            104.5609         -DE/DX =    0.0                 !
 ! A21   A(12,5,14)            105.1268         -DE/DX =    0.0                 !
 ! A22   A(1,8,9)              116.5823         -DE/DX =    0.0                 !
 ! A23   A(5,10,11)            132.2517         -DE/DX =    0.0                 !
 ! A24   A(5,12,13)            127.6713         -DE/DX =    0.0                 !
 ! A25   A(5,14,15)            141.9546         -DE/DX =    0.0                 !
 ! D1    D(3,1,2,6)            -31.2608         -DE/DX =    0.0001              !
 ! D2    D(4,1,2,6)             98.0012         -DE/DX =   -0.0001              !
 ! D3    D(5,1,2,6)            143.7082         -DE/DX =    0.0001              !
 ! D4    D(8,1,2,6)           -153.2161         -DE/DX =    0.0                 !
 ! D5    D(2,1,3,7)            151.7304         -DE/DX =    0.0                 !
 ! D6    D(4,1,3,7)             19.367          -DE/DX =    0.0001              !
 ! D7    D(5,1,3,7)            -22.6571         -DE/DX =   -0.0001              !
 ! D8    D(8,1,3,7)            -91.5581         -DE/DX =    0.0                 !
 ! D9    D(2,1,5,10)           148.5237         -DE/DX =    0.0                 !
 ! D10   D(2,1,5,12)            32.2793         -DE/DX =    0.0                 !
 ! D11   D(2,1,5,14)           -85.3446         -DE/DX =    0.0                 !
 ! D12   D(3,1,5,10)           -37.7721         -DE/DX =    0.0                 !
 ! D13   D(3,1,5,12)          -154.0166         -DE/DX =    0.0                 !
 ! D14   D(3,1,5,14)            88.3595         -DE/DX =    0.0                 !
 ! D15   D(8,1,5,10)            58.5698         -DE/DX =    0.0                 !
 ! D16   D(8,1,5,12)           -57.6747         -DE/DX =    0.0                 !
 ! D17   D(8,1,5,14)          -175.2986         -DE/DX =    0.0                 !
 ! D18   D(2,1,8,9)             -0.5164         -DE/DX =    0.0                 !
 ! D19   D(3,1,8,9)           -118.3821         -DE/DX =    0.0                 !
 ! D20   D(4,1,8,9)            122.1317         -DE/DX =    0.0                 !
 ! D21   D(5,1,8,9)            117.5236         -DE/DX =    0.0                 !
 ! D22   D(1,5,10,11)          -57.4576         -DE/DX =    0.0001              !
 ! D23   D(4,5,10,11)          -87.4721         -DE/DX =   -0.0001              !
 ! D24   D(12,5,10,11)          44.3965         -DE/DX =    0.0                 !
 ! D25   D(14,5,10,11)         158.7218         -DE/DX =    0.0                 !
 ! D26   D(1,5,12,13)         -142.0727         -DE/DX =   -0.0001              !
 ! D27   D(4,5,12,13)         -116.9375         -DE/DX =    0.0001              !
 ! D28   D(10,5,12,13)         111.4313         -DE/DX =    0.0                 !
 ! D29   D(14,5,12,13)          -2.5596         -DE/DX =    0.0                 !
 ! D30   D(1,5,14,15)         -123.8433         -DE/DX =    0.0                 !
 ! D31   D(4,5,14,15)         -117.6583         -DE/DX =    0.0                 !
 ! D32   D(10,5,14,15)           1.6659         -DE/DX =    0.0                 !
 ! D33   D(12,5,14,15)         122.1991         -DE/DX =    0.0                 !
 --------------------------------------------------------------------------------
 GradGradGradGradGradGradGradGradGradGradGradGradGradGradGradGradGradGrad

                          Input orientation:                          
 ---------------------------------------------------------------------
 Center     Atomic      Atomic             Coordinates (Angstroms)
 Number     Number       Type             X           Y           Z
 ---------------------------------------------------------------------
      1         14           0       -1.904517   -0.040445   -0.130689
      2          8           0       -2.774913    1.332305   -0.364796
      3          8           0       -2.962132   -1.301250   -0.095254
      4          8           0       -0.624299   -0.318945   -1.097676
      5         40           0        1.121458   -0.018745   -0.068430
      6          1           0       -3.578727    1.236860   -0.886381
      7          1           0       -2.592135   -2.142089   -0.387430
      8          8           0       -1.069330    0.191675    1.320520
      9          1           0       -1.205747    1.036811    1.767143
     10          8           0        1.539355   -1.478446    1.184737
     11          1           0        1.290110   -1.636076    2.100932
     12          8           0        1.276365    1.793987    0.717715
     13          1           0        1.929654    2.471616    0.511178
     14          8           0        2.531958   -0.111397   -1.418823
     15          1           0        3.308830   -0.618632   -1.667724
 ---------------------------------------------------------------------
                    Distance matrix (angstroms):
                    1          2          3          4          5
     1  Si   0.000000
     2  O    1.642206   0.000000
     3  O    1.646036   2.653925   0.000000
     4  O    1.628369   2.808715   2.726764   0.000000
     5  Zr   3.026694   4.134595   4.280333   2.048691   0.000000
     6  H    2.237311   0.962953   2.729116   3.345717   4.933288
     7  H    2.226127   3.479273   0.963990   2.775011   4.289654
     8  O    1.690393   2.655248   2.795700   2.511266   2.602501
     9  H    2.291403   2.663600   3.466979   3.222320   3.146333
    10  O    3.957075   5.377200   4.683285   3.351902   1.968704
    11  H    4.210915   5.604954   4.797593   3.953592   2.711150
    12  O    3.768679   4.218748   5.310957   3.372335   1.981922
    13  H    4.628533   4.919178   6.207403   4.110756   2.681608
    14  O    4.620242   5.599833   5.775172   3.179334   1.954905
    15  H    5.465873   6.520407   6.501046   3.985507   2.775284
                    6          7          8          9         10
     6  H    0.000000
     7  H    3.555224   0.000000
     8  O    3.501415   3.268407   0.000000
     9  H    3.565424   4.082850   0.965576   0.000000
    10  O    6.152819   4.470049   3.100479   3.768460   0.000000
    11  H    6.394011   4.638946   3.084909   3.672198   0.962488
    12  O    5.143485   5.628440   2.903973   2.799195   3.316035
    13  H    5.815502   6.522297   3.853190   3.669721   4.026041
    14  O    6.280268   5.607479   4.534879   5.043729   3.103645
    15  H    7.175779   6.227477   5.362321   5.909332   3.465092
                   11         12         13         14         15
    11  H    0.000000
    12  O    3.698487   0.000000
    13  H    4.450783   0.963653   0.000000
    14  O    4.031812   3.125987   3.280187   0.000000
    15  H    4.394678   3.954993   4.024844   0.960609   0.000000
 Stoichiometry    H6O7SiZr
 Framework group  C1[X(H6O7SiZr)]
 Deg. of freedom    39
 Full point group                 C1      NOp   1
 Largest Abelian subgroup         C1      NOp   1
 Largest concise Abelian subgroup C1      NOp   1
                         Standard orientation:                         
 ---------------------------------------------------------------------
 Center     Atomic      Atomic             Coordinates (Angstroms)
 Number     Number       Type             X           Y           Z
 ---------------------------------------------------------------------
      1         14           0       -1.909685   -0.041152   -0.131136
      2          8           0       -2.779805    1.330620   -0.371912
      3          8           0       -2.966539   -1.302701   -0.099763
      4          8           0       -0.623971   -0.320019   -1.090697
      5         40           0        1.115887   -0.017088   -0.052302
      6          1           0       -3.580673    1.233852   -0.897769
      7          1           0       -2.594318   -2.143664   -0.388743
      8          8           0       -1.082648    0.193595    1.324313
      9          1           0       -1.222145    1.039243    1.769013
     10          8           0        1.527985   -1.474747    1.205156
     11          1           0        1.273832   -1.631302    2.120186
     12          8           0        1.265125    1.796840    0.732177
     13          1           0        1.919034    2.474676    0.528292
     14          8           0        2.533846   -0.110539   -1.394805
     15          1           0        3.312450   -0.617532   -1.638737
 ---------------------------------------------------------------------
 Rotational constants (GHZ):           1.7694740           0.6083971           0.5830052

 **********************************************************************

            Population analysis using the SCF Density.

 **********************************************************************

 Orbital symmetries:
       Occupied  (A) (A) (A) (A) (A) (A) (A) (A) (A) (A) (A) (A)
                 (A) (A) (A) (A) (A) (A) (A) (A) (A) (A) (A) (A)
                 (A) (A) (A) (A) (A) (A) (A) (A) (A) (A) (A) (A)
                 (A) (A) (A) (A) (A) (A) (A) (A)
       Virtual   (A) (A) (A) (A) (A) (A) (A) (A) (A) (A) (A) (A)
                 (A) (A) (A) (A) (A) (A) (A) (A) (A) (A) (A) (A)
                 (A) (A) (A) (A) (A) (A) (A) (A) (A) (A) (A) (A)
                 (A) (A) (A) (A) (A) (A) (A) (A) (A) (A) (A) (A)
                 (A) (A) (A) (A) (A) (A) (A) (A) (A) (A) (A) (A)
                 (A) (A) (A) (A) (A) (A) (A) (A) (A) (A) (A) (A)
                 (A) (A) (A) (A) (A) (A) (A) (A) (A) (A) (A) (A)
                 (A) (A) (A) (A) (A) (A) (A) (A) (A) (A) (A) (A)
                 (A) (A) (A) (A) (A) (A) (A) (A) (A) (A) (A) (A)
                 (A) (A) (A) (A) (A) (A) (A) (A) (A) (A) (A) (A)
                 (A) (A) (A) (A)
 The electronic state is 1-A.
 Alpha  occ. eigenvalues --  -66.19759 -19.16584 -19.15416 -19.15344 -19.13495
 Alpha  occ. eigenvalues --  -19.13069 -19.13051 -19.12205  -5.34116  -3.70109
 Alpha  occ. eigenvalues --   -3.70044  -3.69977  -2.05676  -1.26361  -1.26266
 Alpha  occ. eigenvalues --   -1.25869  -1.03536  -1.00746  -0.99984  -0.95182
 Alpha  occ. eigenvalues --   -0.94438  -0.93946  -0.93007  -0.57948  -0.53286
 Alpha  occ. eigenvalues --   -0.52306  -0.48082  -0.47114  -0.46564  -0.43360
 Alpha  occ. eigenvalues --   -0.39775  -0.39266  -0.37897  -0.36073  -0.34823
 Alpha  occ. eigenvalues --   -0.34046  -0.33806  -0.33378  -0.32259  -0.31622
 Alpha  occ. eigenvalues --   -0.30661  -0.30430  -0.30142  -0.29657
 Alpha virt. eigenvalues --   -0.01637  -0.00989  -0.00167   0.00585   0.01590
 Alpha virt. eigenvalues --    0.02195   0.02996   0.03245   0.04926   0.08337
 Alpha virt. eigenvalues --    0.09400   0.12225   0.14439   0.15258   0.16168
 Alpha virt. eigenvalues --    0.17018   0.17933   0.18918   0.19587   0.23455
 Alpha virt. eigenvalues --    0.23772   0.24621   0.25095   0.26502   0.28631
 Alpha virt. eigenvalues --    0.30616   0.32009   0.33430   0.38431   0.38984
 Alpha virt. eigenvalues --    0.41360   0.56107   0.63362   0.73413   0.78890
 Alpha virt. eigenvalues --    0.80326   0.84325   0.86434   0.87329   0.89449
 Alpha virt. eigenvalues --    0.90668   0.91323   0.92801   0.94971   0.95559
 Alpha virt. eigenvalues --    0.97092   0.98225   1.00296   1.02102   1.03945
 Alpha virt. eigenvalues --    1.07586   1.07850   1.08717   1.10030   1.12605
 Alpha virt. eigenvalues --    1.14588   1.15660   1.19287   1.19743   1.21446
 Alpha virt. eigenvalues --    1.23788   1.25490   1.28426   1.38262   1.47483
 Alpha virt. eigenvalues --    1.48478   1.50802   1.51678   1.52684   1.56383
 Alpha virt. eigenvalues --    1.57640   1.58265   1.60007   1.60908   1.63164
 Alpha virt. eigenvalues --    1.63653   1.64612   1.68053   1.68848   1.70925
 Alpha virt. eigenvalues --    1.73147   1.75335   1.80179   1.80389   1.81687
 Alpha virt. eigenvalues --    1.82814   1.83774   1.85623   1.86787   1.88354
 Alpha virt. eigenvalues --    1.91195   1.92453   2.00864   2.08579   2.13531
 Alpha virt. eigenvalues --    2.35330   2.35686   2.36336   2.37651   2.38494
 Alpha virt. eigenvalues --    2.39780   2.43250   2.55990   2.59295   2.62103
 Alpha virt. eigenvalues --    2.62726   2.63871   2.64211   2.64370   2.64856
 Alpha virt. eigenvalues --    2.65133   2.65355   2.66067   2.66523   2.72318
 Alpha virt. eigenvalues --    2.77406   2.82007   3.40795   3.42197   3.42863
 Alpha virt. eigenvalues --    3.44026   3.45748   3.46518   4.28413
          Condensed to atoms (all electrons):
               1          2          3          4          5          6
     1  Si  11.565243   0.387573   0.394732   0.343535  -0.097418  -0.022031
     2  O    0.387573   7.951372  -0.020239  -0.010606   0.005188   0.304291
     3  O    0.394732  -0.020239   7.943973  -0.016990  -0.000113  -0.001011
     4  O    0.343535  -0.010606  -0.016990   8.268675   0.191317  -0.000293
     5  Zr  -0.097418   0.005188  -0.000113   0.191317   9.787343  -0.000926
     6  H   -0.022031   0.304291  -0.001011  -0.000293  -0.000926   0.379506
     7  H   -0.017760   0.000383   0.301739   0.001225  -0.003043  -0.000044
     8  O    0.260475  -0.018319  -0.012728  -0.039250   0.102516   0.000624
     9  H   -0.009367   0.000928  -0.000225   0.000841  -0.011268   0.000009
    10  O   -0.006874  -0.000000   0.000001   0.000201   0.226753  -0.000000
    11  H    0.000123  -0.000000   0.000000  -0.000086  -0.017157   0.000000
    12  O   -0.008204   0.000001  -0.000000   0.000314   0.226379   0.000000
    13  H    0.000420  -0.000002   0.000000  -0.000021  -0.017117  -0.000000
    14  O   -0.000488   0.000000  -0.000000   0.000696   0.210232   0.000000
    15  H   -0.000004  -0.000000   0.000000  -0.000058  -0.014358  -0.000000
               7          8          9         10         11         12
     1  Si  -0.017760   0.260475  -0.009367  -0.006874   0.000123  -0.008204
     2  O    0.000383  -0.018319   0.000928  -0.000000  -0.000000   0.000001
     3  O    0.301739  -0.012728  -0.000225   0.000001   0.000000  -0.000000
     4  O    0.001225  -0.039250   0.000841   0.000201  -0.000086   0.000314
     5  Zr  -0.003043   0.102516  -0.011268   0.226753  -0.017157   0.226379
     6  H   -0.000044   0.000624   0.000009  -0.000000   0.000000   0.000000
     7  H    0.382260  -0.000200   0.000053  -0.000003  -0.000001  -0.000000
     8  O   -0.000200   8.060834   0.297533  -0.003653  -0.000657  -0.006096
     9  H    0.000053   0.297533   0.360423  -0.000116  -0.000026   0.001606
    10  O   -0.000003  -0.003653  -0.000116   8.176019   0.295082   0.000749
    11  H   -0.000001  -0.000657  -0.000026   0.295082   0.392221  -0.000308
    12  O   -0.000000  -0.006096   0.001606   0.000749  -0.000308   8.192192
    13  H    0.000000   0.000221  -0.000060  -0.000060  -0.000000   0.291624
    14  O   -0.000000  -0.000051   0.000005   0.000865   0.000014   0.000543
    15  H    0.000000  -0.000001  -0.000000  -0.000521   0.000001  -0.000098
              13         14         15
     1  Si   0.000420  -0.000488  -0.000004
     2  O   -0.000002   0.000000  -0.000000
     3  O    0.000000  -0.000000   0.000000
     4  O   -0.000021   0.000696  -0.000058
     5  Zr  -0.017117   0.210232  -0.014358
     6  H   -0.000000   0.000000  -0.000000
     7  H    0.000000  -0.000000   0.000000
     8  O    0.000221  -0.000051  -0.000001
     9  H   -0.000060   0.000005  -0.000000
    10  O   -0.000060   0.000865  -0.000521
    11  H   -0.000000   0.000014   0.000001
    12  O    0.291624   0.000543  -0.000098
    13  H    0.398119  -0.001445  -0.000001
    14  O   -0.001445   8.181868   0.298792
    15  H   -0.000001   0.298792   0.383374
 Mulliken charges:
               1
     1  Si   1.210045
     2  O   -0.600571
     3  O   -0.589140
     4  O   -0.739500
     5  Zr   1.411673
     6  H    0.339875
     7  H    0.335391
     8  O   -0.641248
     9  H    0.359664
    10  O   -0.688442
    11  H    0.330793
    12  O   -0.698701
    13  H    0.328320
    14  O   -0.691031
    15  H    0.332873
 Sum of Mulliken charges =  -0.00000
 Mulliken charges with hydrogens summed into heavy atoms:
               1
     1  Si   1.210045
     2  O   -0.260696
     3  O   -0.253749
     4  O   -0.739500
     5  Zr   1.411673
     8  O   -0.281585
    10  O   -0.357650
    12  O   -0.370380
    14  O   -0.358158
 Electronic spatial extent (au):  <R**2>=           1894.1114
 Charge=             -0.0000 electrons
 Dipole moment (field-independent basis, Debye):
    X=              0.1257    Y=             -0.1342    Z=              0.5599  Tot=              0.5893
 Quadrupole moment (field-independent basis, Debye-Ang):
   XX=            -64.9521   YY=            -69.3590   ZZ=            -71.8556
   XY=              0.9444   XZ=              1.6630   YZ=              1.4122
 Traceless Quadrupole moment (field-independent basis, Debye-Ang):
   XX=              3.7701   YY=             -0.6368   ZZ=             -3.1334
   XY=              0.9444   XZ=              1.6630   YZ=              1.4122
 Octapole moment (field-independent basis, Debye-Ang**2):
  XXX=             39.2727  YYY=             -3.6972  ZZZ=             18.4641  XYY=              9.3536
  XXY=             12.6083  XXZ=            -28.6776  XZZ=              7.1873  YZZ=             -4.4784
  YYZ=             -1.4644  XYZ=              3.1047
 Hexadecapole moment (field-independent basis, Debye-Ang**3):
 XXXX=          -1349.2695 YYYY=           -371.7952 ZZZZ=           -318.4259 XXXY=            -72.6098
 XXXZ=             17.0754 YYYX=             77.0411 YYYZ=              8.6830 ZZZX=              4.1380
 ZZZY=            -12.1840 XXYY=           -285.0162 XXZZ=           -272.8971 YYZZ=           -111.1074
 XXYZ=             21.6763 YYXZ=              4.7879 ZZXY=            -33.3641
 N-N= 6.630893784338D+02 E-N=-3.362529716556D+03  KE= 8.297821718688D+02
 1\1\GINC-GRA600\FOpt\RB3LYP\Gen\H6O7Si1Zr1\SARASHS\24-Jun-2020\0\\#n B
 3LYP/GEN PSEUDO=READ Opt(modredundant)\\Title\\0,1\Si,-1.9045170738,-0
 .0404453885,-0.1306893396\O,-2.7749129565,1.3323052383,-0.3647962105\O
 ,-2.9621322405,-1.3012498071,-0.0952536905\O,-0.6242985852,-0.31894474
 6,-1.0976763713\Zr,1.1214584386,-0.0187446893,-0.0684304273\H,-3.57872
 74162,1.2368603816,-0.886381313\H,-2.5921353281,-2.1420894861,-0.38743
 0029\O,-1.0693295069,0.1916745507,1.3205201359\H,-1.2057466875,1.03681
 09869,1.767143241\O,1.5393545468,-1.4784458395,1.184737207\H,1.2901095
 392,-1.6360755177,2.1009318206\O,1.27636468,1.7939866702,0.7177151759\
 H,1.9296543919,2.4716162266,0.5111775497\O,2.5319580345,-0.1113966664,
 -1.4188234799\H,3.3088301637,-0.6186319137,-1.667724269\\Version=ES64L
 -G16RevB.01\State=1-A\HF=-866.6889919\RMSD=2.843e-09\RMSF=1.242e-04\Di
 pole=0.0506193,-0.0531501,0.2199317\Quadrupole=2.8174682,-0.4773612,-2
 .3401069,0.703771,1.2099361,1.0477045\PG=C01 [X(H6O7Si1Zr1)]\\@


      LET US REMEMBER, PLEASE, THAT THE SEARCH FOR THE CONSTITUTION
      OF THE WORLD IS ONE OF THE GREATEST AND NOBLEST PROBLEMS PRESENTED 
      BY NATURE.

                                                  -- GALILEO
 Job cpu time:       0 days  0 hours 16 minutes 37.4 seconds.
 Elapsed time:       0 days  0 hours  1 minutes  5.0 seconds.
 File lengths (MBytes):  RWF=     23 Int=      0 D2E=      0 Chk=      3 Scr=      1
 Normal termination of Gaussian 16 at Wed Jun 24 13:53:18 2020.
