 Entering Gaussian System, Link 0=g16
 Initial command:
 /opt/software/gaussian/g16.b01/l1.exe "/localscratch/sarashs.33453164.0/Gau-25890.inp" -scrdir="/localscratch/sarashs.33453164.0/"
 Entering Link 1 = /opt/software/gaussian/g16.b01/l1.exe PID=     25891.
  
 Copyright (c) 1988-2017, Gaussian, Inc.  All Rights Reserved.
  
 This is part of the Gaussian(R) 16 program.  It is based on
 the Gaussian(R) 09 system (copyright 2009, Gaussian, Inc.),
 the Gaussian(R) 03 system (copyright 2003, Gaussian, Inc.),
 the Gaussian(R) 98 system (copyright 1998, Gaussian, Inc.),
 the Gaussian(R) 94 system (copyright 1995, Gaussian, Inc.),
 the Gaussian 92(TM) system (copyright 1992, Gaussian, Inc.),
 the Gaussian 90(TM) system (copyright 1990, Gaussian, Inc.),
 the Gaussian 88(TM) system (copyright 1988, Gaussian, Inc.),
 the Gaussian 86(TM) system (copyright 1986, Carnegie Mellon
 University), and the Gaussian 82(TM) system (copyright 1983,
 Carnegie Mellon University). Gaussian is a federally registered
 trademark of Gaussian, Inc.
  
 This software contains proprietary and confidential information,
 including trade secrets, belonging to Gaussian, Inc.
  
 This software is provided under written license and may be
 used, copied, transmitted, or stored only in accord with that
 written license.
  
 The following legend is applicable only to US Government
 contracts under FAR:
  
                    RESTRICTED RIGHTS LEGEND
  
 Use, reproduction and disclosure by the US Government is
 subject to restrictions as set forth in subparagraphs (a)
 and (c) of the Commercial Computer Software - Restricted
 Rights clause in FAR 52.227-19.
  
 Gaussian, Inc.
 340 Quinnipiac St., Bldg. 40, Wallingford CT 06492
  
  
 ---------------------------------------------------------------
 Warning -- This program may not be used in any manner that
 competes with the business of Gaussian, Inc. or will provide
 assistance to any competitor of Gaussian, Inc.  The licensee
 of this program is prohibited from giving any competitor of
 Gaussian, Inc. access to this program.  By using this program,
 the user acknowledges that Gaussian, Inc. is engaged in the
 business of creating and licensing software in the field of
 computational chemistry and represents and warrants to the
 licensee that it is not a competitor of Gaussian, Inc. and that
 it will not use this program in any manner prohibited above.
 ---------------------------------------------------------------
  

 Cite this work as:
 Gaussian 16, Revision B.01,
 M. J. Frisch, G. W. Trucks, H. B. Schlegel, G. E. Scuseria, 
 M. A. Robb, J. R. Cheeseman, G. Scalmani, V. Barone, 
 G. A. Petersson, H. Nakatsuji, X. Li, M. Caricato, A. V. Marenich, 
 J. Bloino, B. G. Janesko, R. Gomperts, B. Mennucci, H. P. Hratchian, 
 J. V. Ortiz, A. F. Izmaylov, J. L. Sonnenberg, D. Williams-Young, 
 F. Ding, F. Lipparini, F. Egidi, J. Goings, B. Peng, A. Petrone, 
 T. Henderson, D. Ranasinghe, V. G. Zakrzewski, J. Gao, N. Rega, 
 G. Zheng, W. Liang, M. Hada, M. Ehara, K. Toyota, R. Fukuda, 
 J. Hasegawa, M. Ishida, T. Nakajima, Y. Honda, O. Kitao, H. Nakai, 
 T. Vreven, K. Throssell, J. A. Montgomery, Jr., J. E. Peralta, 
 F. Ogliaro, M. J. Bearpark, J. J. Heyd, E. N. Brothers, K. N. Kudin, 
 V. N. Staroverov, T. A. Keith, R. Kobayashi, J. Normand, 
 K. Raghavachari, A. P. Rendell, J. C. Burant, S. S. Iyengar, 
 J. Tomasi, M. Cossi, J. M. Millam, M. Klene, C. Adamo, R. Cammi, 
 J. W. Ochterski, R. L. Martin, K. Morokuma, O. Farkas, 
 J. B. Foresman, and D. J. Fox, Gaussian, Inc., Wallingford CT, 2016.
 
 ******************************************
 Gaussian 16:  ES64L-G16RevB.01 20-Dec-2017
                24-Jun-2020 
 ******************************************
 %NProcShared=16
 Will use up to   16 processors via shared memory.
 ------------------------------------------
 #n B3LYP/GEN PSEUDO=READ Opt(modredundant)
 ------------------------------------------
 1/18=120,19=15,26=3,38=1/1,3;
 2/9=110,12=2,17=6,18=5,40=1/2;
 3/5=7,11=2,16=1,17=8,25=1,30=1,71=1,74=-5/1,2,3;
 4//1;
 5/5=2,38=5/2;
 6/7=2,8=2,9=2,10=2,28=1/1;
 7//1,2,3,16;
 1/18=20,19=15,26=3/3(2);
 2/9=110/2;
 99//99;
 2/9=110/2;
 3/5=7,6=1,11=2,16=1,17=8,25=1,30=1,71=1,74=-5,82=7/1,2,3;
 4/5=5,16=3,69=1/1;
 5/5=2,38=5/2;
 7//1,2,3,16;
 1/18=20,19=15,26=3/3(-5);
 2/9=110/2;
 6/7=2,8=2,9=2,10=2,19=2,28=1/1;
 99/9=1/99;
 -----
 Title
 -----
 Symbolic Z-matrix:
 Charge =  0 Multiplicity = 1
 Si                   -1.90698  -0.04093  -0.13187 
 O                    -2.77661   1.33183  -0.36828 
 O                    -2.96472  -1.30138  -0.09409 
 O                    -0.62539  -0.3216   -1.09659 
 Zr                    1.00003  -0.00177   0.1121 
 H                    -3.57833   1.23701  -0.89318 
 H                    -2.59505  -2.1428   -0.38501 
 O                    -1.07346   0.19403   1.32035 
 H                    -1.20745   1.04108   1.76425 
 O                     1.31472  -1.4692    1.38615 
 H                     0.98348  -1.63955   2.27363 
 O                     1.04692   1.80566   0.92538 
 H                     1.71075   2.49116   0.79052 
 O                     2.54216  -0.05624  -1.08824 
 H                     3.34696  -0.55001  -1.26493 
 
 The following ModRedundant input section has been read:
 A       1       4       5 F                                                   
 

 GradGradGradGradGradGradGradGradGradGradGradGradGradGradGradGradGradGrad
 Berny optimization.
 Initialization pass.
                           ----------------------------
                           !    Initial Parameters    !
                           ! (Angstroms and Degrees)  !
 --------------------------                            --------------------------
 ! Name  Definition              Value          Derivative Info.                !
 --------------------------------------------------------------------------------
 ! R1    R(1,2)                  1.6421         estimate D2E/DX2                !
 ! R2    R(1,3)                  1.6459         estimate D2E/DX2                !
 ! R3    R(1,4)                  1.6285         estimate D2E/DX2                !
 ! R4    R(1,5)                  2.9175         estimate D2E/DX2                !
 ! R5    R(1,8)                  1.6908         estimate D2E/DX2                !
 ! R6    R(2,6)                  0.9629         estimate D2E/DX2                !
 ! R7    R(3,7)                  0.964          estimate D2E/DX2                !
 ! R8    R(4,5)                  2.0507         estimate D2E/DX2                !
 ! R9    R(5,8)                  2.4078         estimate D2E/DX2                !
 ! R10   R(5,10)                 1.9687         estimate D2E/DX2                !
 ! R11   R(5,12)                 1.9825         estimate D2E/DX2                !
 ! R12   R(5,14)                 1.955          estimate D2E/DX2                !
 ! R13   R(8,9)                  0.9657         estimate D2E/DX2                !
 ! R14   R(10,11)                0.9625         estimate D2E/DX2                !
 ! R15   R(12,13)                0.9637         estimate D2E/DX2                !
 ! R16   R(14,15)                0.9606         estimate D2E/DX2                !
 ! A1    A(2,1,3)              107.6477         estimate D2E/DX2                !
 ! A2    A(2,1,4)              118.3958         estimate D2E/DX2                !
 ! A3    A(2,1,5)              121.9033         estimate D2E/DX2                !
 ! A4    A(2,1,8)              105.5776         estimate D2E/DX2                !
 ! A5    A(3,1,4)              112.7909         estimate D2E/DX2                !
 ! A6    A(3,1,5)              130.4439         estimate D2E/DX2                !
 ! A7    A(3,1,8)              113.7977         estimate D2E/DX2                !
 ! A8    A(4,1,8)               98.3257         estimate D2E/DX2                !
 ! A9    A(1,2,6)              115.9167         estimate D2E/DX2                !
 ! A10   A(1,3,7)              114.5237         estimate D2E/DX2                !
 ! A11   A(1,4,5)              104.3437         Frozen                          !
 ! A12   A(1,5,10)             101.7352         estimate D2E/DX2                !
 ! A13   A(1,5,12)              94.0202         estimate D2E/DX2                !
 ! A14   A(1,5,14)             137.2455         estimate D2E/DX2                !
 ! A15   A(4,5,8)               68.0299         estimate D2E/DX2                !
 ! A16   A(4,5,10)             113.0727         estimate D2E/DX2                !
 ! A17   A(4,5,12)             113.7488         estimate D2E/DX2                !
 ! A18   A(4,5,14)             105.011          estimate D2E/DX2                !
 ! A19   A(8,5,10)              82.7337         estimate D2E/DX2                !
 ! A20   A(8,5,12)              74.9525         estimate D2E/DX2                !
 ! A21   A(10,5,12)            114.2237         estimate D2E/DX2                !
 ! A22   A(10,5,14)            104.5067         estimate D2E/DX2                !
 ! A23   A(12,5,14)            104.9881         estimate D2E/DX2                !
 ! A24   A(1,8,9)              116.6352         estimate D2E/DX2                !
 ! A25   A(5,8,9)              114.9288         estimate D2E/DX2                !
 ! A26   A(5,10,11)            132.35           estimate D2E/DX2                !
 ! A27   A(5,12,13)            127.3992         estimate D2E/DX2                !
 ! A28   A(5,14,15)            142.0128         estimate D2E/DX2                !
 ! A29   L(8,5,14,4,-1)        173.0409         estimate D2E/DX2                !
 ! A30   L(8,5,14,4,-2)        175.3325         estimate D2E/DX2                !
 ! D1    D(3,1,2,6)            -31.5445         estimate D2E/DX2                !
 ! D2    D(4,1,2,6)             97.8074         estimate D2E/DX2                !
 ! D3    D(5,1,2,6)            147.7125         estimate D2E/DX2                !
 ! D4    D(8,1,2,6)           -153.4334         estimate D2E/DX2                !
 ! D5    D(2,1,3,7)            151.7162         estimate D2E/DX2                !
 ! D6    D(4,1,3,7)             19.2636         estimate D2E/DX2                !
 ! D7    D(5,1,3,7)            -27.455          estimate D2E/DX2                !
 ! D8    D(8,1,3,7)            -91.6497         estimate D2E/DX2                !
 ! D9    D(2,1,5,10)           146.5417         estimate D2E/DX2                !
 ! D10   D(2,1,5,12)            30.776          estimate D2E/DX2                !
 ! D11   D(2,1,5,14)           -86.4768         estimate D2E/DX2                !
 ! D12   D(3,1,5,10)           -34.3887         estimate D2E/DX2                !
 ! D13   D(3,1,5,12)          -150.1544         estimate D2E/DX2                !
 ! D14   D(3,1,5,14)            92.5928         estimate D2E/DX2                !
 ! D15   D(2,1,8,9)             -0.7356         estimate D2E/DX2                !
 ! D16   D(3,1,8,9)           -118.5698         estimate D2E/DX2                !
 ! D17   D(4,1,8,9)            121.931          estimate D2E/DX2                !
 ! D18   D(4,5,8,9)           -122.7917         estimate D2E/DX2                !
 ! D19   D(10,5,8,9)           118.6896         estimate D2E/DX2                !
 ! D20   D(12,5,8,9)             1.1354         estimate D2E/DX2                !
 ! D21   D(9,8,14,15)          126.632          estimate D2E/DX2                !
 ! D22   D(1,5,10,11)          -55.9454         estimate D2E/DX2                !
 ! D23   D(4,5,10,11)          -88.2377         estimate D2E/DX2                !
 ! D24   D(8,5,10,11)          -25.8999         estimate D2E/DX2                !
 ! D25   D(12,5,10,11)          43.9575         estimate D2E/DX2                !
 ! D26   D(14,5,10,11)         158.1208         estimate D2E/DX2                !
 ! D27   D(1,5,12,13)         -144.0598         estimate D2E/DX2                !
 ! D28   D(4,5,12,13)         -116.9746         estimate D2E/DX2                !
 ! D29   D(8,5,12,13)         -174.1866         estimate D2E/DX2                !
 ! D30   D(10,5,12,13)         111.155          estimate D2E/DX2                !
 ! D31   D(14,5,12,13)          -2.7241         estimate D2E/DX2                !
 ! D32   D(1,5,14,15)         -124.0279         estimate D2E/DX2                !
 ! D33   D(4,5,14,15)         -117.1594         estimate D2E/DX2                !
 ! D34   D(10,5,14,15)           2.0819         estimate D2E/DX2                !
 ! D35   D(12,5,14,15)         122.6132         estimate D2E/DX2                !
 --------------------------------------------------------------------------------
 Trust Radius=3.00D-01 FncErr=1.00D-07 GrdErr=1.00D-06 EigMax=2.50D+02 EigMin=1.00D-04
 Number of steps in this run=     91 maximum allowed number of steps=    100.
 GradGradGradGradGradGradGradGradGradGradGradGradGradGradGradGradGradGrad

                          Input orientation:                          
 ---------------------------------------------------------------------
 Center     Atomic      Atomic             Coordinates (Angstroms)
 Number     Number       Type             X           Y           Z
 ---------------------------------------------------------------------
      1         14           0       -1.906980   -0.040930   -0.131870
      2          8           0       -2.776610    1.331830   -0.368280
      3          8           0       -2.964720   -1.301380   -0.094090
      4          8           0       -0.625390   -0.321600   -1.096590
      5         40           0        1.000030   -0.001770    0.112100
      6          1           0       -3.578330    1.237010   -0.893180
      7          1           0       -2.595050   -2.142800   -0.385010
      8          8           0       -1.073460    0.194030    1.320350
      9          1           0       -1.207450    1.041080    1.764250
     10          8           0        1.314720   -1.469200    1.386150
     11          1           0        0.983480   -1.639550    2.273630
     12          8           0        1.046920    1.805660    0.925380
     13          1           0        1.710750    2.491160    0.790520
     14          8           0        2.542160   -0.056240   -1.088240
     15          1           0        3.346960   -0.550010   -1.264930
 ---------------------------------------------------------------------
                    Distance matrix (angstroms):
                    1          2          3          4          5
     1  Si   0.000000
     2  O    1.642138   0.000000
     3  O    1.645897   2.654121   0.000000
     4  O    1.628476   2.809273   2.727167   0.000000
     5  Zr   2.917492   4.033889   4.177409   2.050662   0.000000
     6  H    2.237439   0.962946   2.731023   3.345220   4.848355
     7  H    2.226068   3.479411   0.963991   2.775370   4.213755
     8  O    1.690830   2.654577   2.795310   2.511621   2.407814
     9  H    2.292457   2.663547   3.468219   3.221816   2.947898
    10  O    3.837146   5.259541   4.531322   3.353358   1.968650
    11  H    4.086169   5.472391   4.616139   3.960283   2.711975
    12  O    3.640494   4.064167   5.175546   3.377901   1.982530
    13  H    4.511126   4.777370   6.084892   4.114651   2.679566
    14  O    4.550794   5.543861   5.732751   3.178657   1.954980
    15  H    5.398784   6.468648   6.463182   3.982471   2.775763
                    6          7          8          9         10
     6  H    0.000000
     7  H    3.556430   0.000000
     8  O    3.501699   3.268679   0.000000
     9  H    3.566706   4.084341   0.965657   0.000000
    10  O    6.038283   4.344772   2.911025   3.578520   0.000000
    11  H    6.254070   4.486369   2.915778   3.499346   0.962476
    12  O    5.002346   5.529141   2.692464   2.523979   3.317941
    13  H    5.690528   6.433923   3.648198   3.400996   4.024434
    14  O    6.258669   5.589203   4.351626   4.837394   3.102527
    15  H    7.161793   6.214396   5.174687   5.696503   3.464554
                   11         12         13         14         15
    11  H    0.000000
    12  O    3.700172   0.000000
    13  H    4.448742   0.963726   0.000000
    14  O    4.029705   3.123632   3.272649   0.000000
    15  H    4.392555   3.954342   4.018802   0.960589   0.000000
 Stoichiometry    H6O7SiZr
 Framework group  C1[X(H6O7SiZr)]
 Deg. of freedom    39
 Full point group                 C1      NOp   1
 Largest Abelian subgroup         C1      NOp   1
 Largest concise Abelian subgroup C1      NOp   1
                         Standard orientation:                         
 ---------------------------------------------------------------------
 Center     Atomic      Atomic             Coordinates (Angstroms)
 Number     Number       Type             X           Y           Z
 ---------------------------------------------------------------------
      1         14           0       -1.845889   -0.039620   -0.142871
      2          8           0       -2.718790    1.339798   -0.321384
      3          8           0       -2.907574   -1.294413   -0.057465
      4          8           0       -0.620080   -0.319775   -1.177686
      5         40           0        1.070246   -0.018602   -0.056389
      6          1           0       -3.548290    1.253613   -0.802805
      7          1           0       -2.559238   -2.135549   -0.374374
      8          8           0       -0.933620    0.179171    1.263828
      9          1           0       -1.038314    1.023410    1.720768
     10          8           0        1.444606   -1.497817    1.187541
     11          1           0        1.160855   -1.673347    2.090334
     12          8           0        1.171908    1.782035    0.766895
     13          1           0        1.831567    2.464871    0.601507
     14          8           0        2.544815   -0.072153   -1.338858
     15          1           0        3.335901   -0.568986   -1.562624
 ---------------------------------------------------------------------
 Rotational constants (GHZ):           1.7863413           0.6409674           0.6106843
 General basis read from cards:  (5D, 7F)
 ======================================================================================================
                                       Pseudopotential Parameters
 ======================================================================================================
  Center     Atomic      Valence      Angular      Power
  Number     Number     Electrons     Momentum     of R      Exponent        Coefficient   SO-Coeffient
 ======================================================================================================
    1         14
                                   No pseudopotential on this center.
    2          8
                                   No pseudopotential on this center.
    3          8
                                   No pseudopotential on this center.
    4          8
                                   No pseudopotential on this center.
    5         40           12
                                      F and up 
                                                     0      645.9321873       -0.04258430    0.00000000
                                                     1      134.7547401      -20.22224090    0.00000000
                                                     2       42.3074619     -101.86951720    0.00000000
                                                     2       12.0003227      -41.61957840    0.00000000
                                                     2        4.1260454       -4.69861600    0.00000000
                                      S - F
                                                     0      117.6251862        2.79105590    0.00000000
                                                     1       22.9646089       41.94894590    0.00000000
                                                     2        4.5225298       67.72718660    0.00000000
                                      P - F
                                                     0       47.1953145        4.99111440    0.00000000
                                                     1       48.0356033       20.71931720    0.00000000
                                                     2       19.4541456      195.58677580    0.00000000
                                                     2        4.0512875       48.28771760    0.00000000
                                      D - F
                                                     0       79.9073983        3.00492260    0.00000000
                                                     1       45.8263798       25.93779890    0.00000000
                                                     2       26.9903522      125.12449340    0.00000000
                                                     2        9.6835718       70.76340220    0.00000000
                                                     2        2.7995666       15.04928220    0.00000000
    6          1
                                   No pseudopotential on this center.
    7          1
                                   No pseudopotential on this center.
    8          8
                                   No pseudopotential on this center.
    9          1
                                   No pseudopotential on this center.
   10          8
                                   No pseudopotential on this center.
   11          1
                                   No pseudopotential on this center.
   12          8
                                   No pseudopotential on this center.
   13          1
                                   No pseudopotential on this center.
   14          8
                                   No pseudopotential on this center.
   15          1
                                   No pseudopotential on this center.
 ======================================================================================================
 There are   178 symmetry adapted cartesian basis functions of A   symmetry.
 There are   168 symmetry adapted basis functions of A   symmetry.
   168 basis functions,   339 primitive gaussians,   178 cartesian basis functions
    44 alpha electrons       44 beta electrons
       nuclear repulsion energy       671.3727754659 Hartrees.
 NAtoms=   15 NActive=   15 NUniq=   15 SFac= 1.00D+00 NAtFMM=   60 NAOKFM=F Big=F
 Integral buffers will be    131072 words long.
 Raffenetti 2 integral format.
 Two-electron integral symmetry is turned on.
 One-electron integrals computed using PRISM.
   1 Symmetry operations used in ECPInt.
 ECPInt:  NShTT=    1770 NPrTT=   10201 LenC2=    1673 LenP2D=    6807.
 LDataN:  DoStor=T MaxTD1= 5 Len=  102
 NBasis=   168 RedAO= T EigKep=  7.50D-03  NBF=   168
 NBsUse=   168 1.00D-06 EigRej= -1.00D+00 NBFU=   168
 Defaulting to unpruned grid for atomic number  40.
 ExpMin= 2.43D-02 ExpMax= 1.61D+04 ExpMxC= 2.43D+03 IAcc=3 IRadAn=         5 AccDes= 0.00D+00
 Harris functional with IExCor=  402 and IRadAn=       5 diagonalized for initial guess.
 HarFok:  IExCor=  402 AccDes= 0.00D+00 IRadAn=         5 IDoV= 1 UseB2=F ITyADJ=14
 ICtDFT=  3500011 ScaDFX=  1.000000  1.000000  1.000000  1.000000
 Defaulting to unpruned grid for atomic number  40.
 FoFCou: FMM=F IPFlag=           0 FMFlag=      100000 FMFlg1=           0
         NFxFlg=           0 DoJE=T BraDBF=F KetDBF=T FulRan=T
         wScrn=  0.000000 ICntrl=       500 IOpCl=  0 I1Cent=   200000004 NGrid=           0
         NMat0=    1 NMatS0=      1 NMatT0=    0 NMatD0=    1 NMtDS0=    0 NMtDT0=    0
 Petite list used in FoFCou.
 Requested convergence on RMS density matrix=1.00D-08 within 128 cycles.
 Requested convergence on MAX density matrix=1.00D-06.
 Requested convergence on             energy=1.00D-06.
 No special actions if energy rises.
 Defaulting to unpruned grid for atomic number  40.
 Defaulting to unpruned grid for atomic number  40.
 Defaulting to unpruned grid for atomic number  40.
 Defaulting to unpruned grid for atomic number  40.
 Defaulting to unpruned grid for atomic number  40.
 Defaulting to unpruned grid for atomic number  40.
 Defaulting to unpruned grid for atomic number  40.
 Defaulting to unpruned grid for atomic number  40.
 Defaulting to unpruned grid for atomic number  40.
 Defaulting to unpruned grid for atomic number  40.
 Defaulting to unpruned grid for atomic number  40.
 Defaulting to unpruned grid for atomic number  40.
 Defaulting to unpruned grid for atomic number  40.
 Defaulting to unpruned grid for atomic number  40.
 Defaulting to unpruned grid for atomic number  40.
 Defaulting to unpruned grid for atomic number  40.
 SCF Done:  E(RB3LYP) =  -866.686778717     A.U. after   15 cycles
            NFock= 15  Conv=0.21D-08     -V/T= 2.0444

 **********************************************************************

            Population analysis using the SCF Density.

 **********************************************************************

 Orbital symmetries:
       Occupied  (A) (A) (A) (A) (A) (A) (A) (A) (A) (A) (A) (A)
                 (A) (A) (A) (A) (A) (A) (A) (A) (A) (A) (A) (A)
                 (A) (A) (A) (A) (A) (A) (A) (A) (A) (A) (A) (A)
                 (A) (A) (A) (A) (A) (A) (A) (A)
       Virtual   (A) (A) (A) (A) (A) (A) (A) (A) (A) (A) (A) (A)
                 (A) (A) (A) (A) (A) (A) (A) (A) (A) (A) (A) (A)
                 (A) (A) (A) (A) (A) (A) (A) (A) (A) (A) (A) (A)
                 (A) (A) (A) (A) (A) (A) (A) (A) (A) (A) (A) (A)
                 (A) (A) (A) (A) (A) (A) (A) (A) (A) (A) (A) (A)
                 (A) (A) (A) (A) (A) (A) (A) (A) (A) (A) (A) (A)
                 (A) (A) (A) (A) (A) (A) (A) (A) (A) (A) (A) (A)
                 (A) (A) (A) (A) (A) (A) (A) (A) (A) (A) (A) (A)
                 (A) (A) (A) (A) (A) (A) (A) (A) (A) (A) (A) (A)
                 (A) (A) (A) (A) (A) (A) (A) (A) (A) (A) (A) (A)
                 (A) (A) (A) (A)
 The electronic state is 1-A.
 Alpha  occ. eigenvalues --  -66.20124 -19.17572 -19.15663 -19.15610 -19.13101
 Alpha  occ. eigenvalues --  -19.12866 -19.12720 -19.12455  -5.34521  -3.70525
 Alpha  occ. eigenvalues --   -3.70441  -3.70371  -2.05296  -1.26147  -1.25920
 Alpha  occ. eigenvalues --   -1.25566  -1.04276  -1.01458  -1.00254  -0.94952
 Alpha  occ. eigenvalues --   -0.94157  -0.93716  -0.93229  -0.58590  -0.54185
 Alpha  occ. eigenvalues --   -0.52627  -0.47912  -0.47006  -0.46358  -0.43377
 Alpha  occ. eigenvalues --   -0.40805  -0.40172  -0.38211  -0.36308  -0.34885
 Alpha  occ. eigenvalues --   -0.34339  -0.33769  -0.33190  -0.32548  -0.31481
 Alpha  occ. eigenvalues --   -0.30638  -0.30316  -0.30025  -0.29533
 Alpha virt. eigenvalues --   -0.01393  -0.00777  -0.00373   0.00694   0.01613
 Alpha virt. eigenvalues --    0.02318   0.03292   0.03474   0.05927   0.08228
 Alpha virt. eigenvalues --    0.09456   0.13206   0.14339   0.15329   0.16174
 Alpha virt. eigenvalues --    0.16980   0.17888   0.18768   0.19504   0.23462
 Alpha virt. eigenvalues --    0.23868   0.24713   0.25305   0.26263   0.28772
 Alpha virt. eigenvalues --    0.31065   0.31776   0.33372   0.37702   0.39017
 Alpha virt. eigenvalues --    0.41679   0.55497   0.62232   0.74464   0.78830
 Alpha virt. eigenvalues --    0.80228   0.84357   0.86749   0.87530   0.89369
 Alpha virt. eigenvalues --    0.90467   0.90860   0.92067   0.94670   0.95117
 Alpha virt. eigenvalues --    0.96502   0.97921   1.00397   1.02591   1.03444
 Alpha virt. eigenvalues --    1.07087   1.07850   1.09440   1.10419   1.12310
 Alpha virt. eigenvalues --    1.13119   1.15951   1.18321   1.19263   1.21516
 Alpha virt. eigenvalues --    1.24923   1.25591   1.32690   1.40569   1.47166
 Alpha virt. eigenvalues --    1.48583   1.48827   1.52730   1.53746   1.55618
 Alpha virt. eigenvalues --    1.57518   1.58102   1.59532   1.61184   1.63247
 Alpha virt. eigenvalues --    1.63889   1.64990   1.68171   1.70123   1.71303
 Alpha virt. eigenvalues --    1.73550   1.74740   1.80132   1.80745   1.82075
 Alpha virt. eigenvalues --    1.82951   1.83833   1.85211   1.87277   1.88593
 Alpha virt. eigenvalues --    1.91272   1.92319   2.00556   2.08225   2.13303
 Alpha virt. eigenvalues --    2.34755   2.35482   2.36167   2.38164   2.38717
 Alpha virt. eigenvalues --    2.40409   2.43037   2.55554   2.58897   2.61407
 Alpha virt. eigenvalues --    2.62885   2.63619   2.64483   2.64753   2.64990
 Alpha virt. eigenvalues --    2.65469   2.65620   2.66341   2.66498   2.71724
 Alpha virt. eigenvalues --    2.77128   2.81619   3.40853   3.42110   3.43270
 Alpha virt. eigenvalues --    3.43942   3.45903   3.46947   4.68310
          Condensed to atoms (all electrons):
               1          2          3          4          5          6
     1  Si  11.574319   0.386454   0.392443   0.340444  -0.103557  -0.022085
     2  O    0.386454   7.950446  -0.020148  -0.010685   0.007018   0.304512
     3  O    0.392443  -0.020148   7.945494  -0.017067   0.001747  -0.000976
     4  O    0.340444  -0.010685  -0.017067   8.261371   0.193757  -0.000298
     5  Zr  -0.103557   0.007018   0.001747   0.193757   9.812907  -0.000913
     6  H   -0.022085   0.304512  -0.000976  -0.000298  -0.000913   0.378198
     7  H   -0.017196   0.000378   0.301678   0.001217  -0.003349  -0.000048
     8  O    0.258920  -0.018251  -0.012420  -0.038216   0.076835   0.000617
     9  H   -0.009036   0.001144  -0.000266   0.000575  -0.009698  -0.000006
    10  O   -0.008626  -0.000000  -0.000002   0.000115   0.230964   0.000000
    11  H    0.000110  -0.000000  -0.000002  -0.000090  -0.017903   0.000000
    12  O   -0.011218  -0.000006  -0.000000   0.000228   0.229570   0.000000
    13  H    0.000587  -0.000002   0.000000  -0.000022  -0.017248   0.000000
    14  O   -0.001233   0.000000  -0.000000   0.000694   0.210298   0.000000
    15  H    0.000030  -0.000000   0.000000  -0.000061  -0.014568  -0.000000
               7          8          9         10         11         12
     1  Si  -0.017196   0.258920  -0.009036  -0.008626   0.000110  -0.011218
     2  O    0.000378  -0.018251   0.001144  -0.000000  -0.000000  -0.000006
     3  O    0.301678  -0.012420  -0.000266  -0.000002  -0.000002  -0.000000
     4  O    0.001217  -0.038216   0.000575   0.000115  -0.000090   0.000228
     5  Zr  -0.003349   0.076835  -0.009698   0.230964  -0.017903   0.229570
     6  H   -0.000048   0.000617  -0.000006   0.000000   0.000000   0.000000
     7  H    0.381297  -0.000163   0.000054  -0.000007  -0.000001   0.000000
     8  O   -0.000163   8.106518   0.298522  -0.006612  -0.001018  -0.012393
     9  H    0.000054   0.298522   0.346022  -0.000243  -0.000066   0.003056
    10  O   -0.000007  -0.006612  -0.000243   8.175147   0.295201   0.000679
    11  H   -0.000001  -0.001018  -0.000066   0.295201   0.394666  -0.000318
    12  O    0.000000  -0.012393   0.003056   0.000679  -0.000318   8.202131
    13  H    0.000000   0.000463  -0.000072  -0.000065  -0.000000   0.291682
    14  O   -0.000000  -0.000147   0.000011   0.000896   0.000018   0.000571
    15  H    0.000000   0.000001  -0.000000  -0.000488   0.000001  -0.000090
              13         14         15
     1  Si   0.000587  -0.001233   0.000030
     2  O   -0.000002   0.000000  -0.000000
     3  O    0.000000  -0.000000   0.000000
     4  O   -0.000022   0.000694  -0.000061
     5  Zr  -0.017248   0.210298  -0.014568
     6  H    0.000000   0.000000  -0.000000
     7  H    0.000000  -0.000000   0.000000
     8  O    0.000463  -0.000147   0.000001
     9  H   -0.000072   0.000011  -0.000000
    10  O   -0.000065   0.000896  -0.000488
    11  H   -0.000000   0.000018   0.000001
    12  O    0.291682   0.000571  -0.000090
    13  H    0.398991  -0.001471   0.000005
    14  O   -0.001471   8.184498   0.297652
    15  H    0.000005   0.297652   0.386403
 Mulliken charges:
               1
     1  Si   1.219643
     2  O   -0.600859
     3  O   -0.590480
     4  O   -0.731961
     5  Zr   1.404140
     6  H    0.340998
     7  H    0.336140
     8  O   -0.652656
     9  H    0.370004
    10  O   -0.686959
    11  H    0.329404
    12  O   -0.703893
    13  H    0.327153
    14  O   -0.691788
    15  H    0.331115
 Sum of Mulliken charges =  -0.00000
 Mulliken charges with hydrogens summed into heavy atoms:
               1
     1  Si   1.219643
     2  O   -0.259861
     3  O   -0.254340
     4  O   -0.731961
     5  Zr   1.404140
     8  O   -0.282652
    10  O   -0.357555
    12  O   -0.376740
    14  O   -0.360674
 Electronic spatial extent (au):  <R**2>=           1827.5751
 Charge=             -0.0000 electrons
 Dipole moment (field-independent basis, Debye):
    X=             -0.2354    Y=             -0.1165    Z=              0.8019  Tot=              0.8438
 Quadrupole moment (field-independent basis, Debye-Ang):
   XX=            -64.7577   YY=            -69.4935   ZZ=            -72.4573
   XY=              1.1520   XZ=              1.7178   YZ=              1.4775
 Traceless Quadrupole moment (field-independent basis, Debye-Ang):
   XX=              4.1452   YY=             -0.5907   ZZ=             -3.5545
   XY=              1.1520   XZ=              1.7178   YZ=              1.4775
 Octapole moment (field-independent basis, Debye-Ang**2):
  XXX=             34.7737  YYY=             -3.8189  ZZZ=             19.6090  XYY=              8.1341
  XXY=             12.0218  XXZ=            -27.4177  XZZ=              6.9280  YZZ=             -4.4254
  YYZ=             -0.8140  XYZ=              3.8298
 Hexadecapole moment (field-independent basis, Debye-Ang**3):
 XXXX=          -1257.9015 YYYY=           -373.5265 ZZZZ=           -316.8544 XXXY=            -74.4463
 XXXZ=             17.3392 YYYX=             75.8611 YYYZ=              8.9294 ZZZX=              1.8072
 ZZZY=            -13.0900 XXYY=           -273.3096 XXZZ=           -266.4165 YYZZ=           -110.5594
 XXYZ=             22.4278 YYXZ=              7.6447 ZZXY=            -28.1778
 N-N= 6.713727754659D+02 E-N=-3.379036345403D+03  KE= 8.298684442385D+02
   1 Symmetry operations used in ECPInt.
 ECPInt:  NShTT=    1770 NPrTT=   10201 LenC2=    1673 LenP2D=    6807.
 LDataN:  DoStor=T MaxTD1= 6 Len=  172
 Calling FoFJK, ICntrl=      2127 FMM=F ISym2X=0 I1Cent= 0 IOpClX= 0 NMat=1 NMatS=1 NMatT=0.
 Defaulting to unpruned grid for atomic number  40.
 Defaulting to unpruned grid for atomic number  40.
 Defaulting to unpruned grid for atomic number  40.
 Defaulting to unpruned grid for atomic number  40.
 Defaulting to unpruned grid for atomic number  40.
 Defaulting to unpruned grid for atomic number  40.
 Defaulting to unpruned grid for atomic number  40.
 Defaulting to unpruned grid for atomic number  40.
 Defaulting to unpruned grid for atomic number  40.
 Defaulting to unpruned grid for atomic number  40.
 Defaulting to unpruned grid for atomic number  40.
 Defaulting to unpruned grid for atomic number  40.
 Defaulting to unpruned grid for atomic number  40.
 Defaulting to unpruned grid for atomic number  40.
 Defaulting to unpruned grid for atomic number  40.
 Defaulting to unpruned grid for atomic number  40.
 ***** Axes restored to original set *****
 -------------------------------------------------------------------
 Center     Atomic                   Forces (Hartrees/Bohr)
 Number     Number              X              Y              Z
 -------------------------------------------------------------------
      1       14          -0.009190118   -0.001550021   -0.007192771
      2        8           0.000598475   -0.000393974    0.000924068
      3        8           0.000182169    0.000481948    0.000712479
      4        8          -0.002927975    0.000826584    0.004052422
      5       40           0.011904977   -0.001646967    0.000460355
      6        1          -0.000043606   -0.000084001    0.000050748
      7        1           0.000053316   -0.000083430   -0.000055325
      8        8          -0.007553283   -0.001073467    0.002485228
      9        1           0.000942343    0.001355847    0.000412097
     10        8           0.002145120   -0.002107761   -0.000369298
     11        1          -0.000224370    0.000558455   -0.000481817
     12        8           0.001488693    0.004412373    0.000906608
     13        1           0.000360743   -0.000353404   -0.000391286
     14        8           0.002117464   -0.000834880   -0.000992029
     15        1           0.000146054    0.000492697   -0.000521479
 -------------------------------------------------------------------
 Cartesian Forces:  Max     0.011904977 RMS     0.003046896

 GradGradGradGradGradGradGradGradGradGradGradGradGradGradGradGradGradGrad
 Berny optimization.
 FormGI is forming the generalized inverse of G from B-inverse, IUseBI=4.
 Internal  Forces:  Max     0.007690845 RMS     0.001660716
 Search for a local minimum.
 Step number   1 out of a maximum of   91
 All quantities printed in internal units (Hartrees-Bohrs-Radians)
 Mixed Optimization -- RFO/linear search
 Second derivative matrix not updated -- first step.
 ITU=  0
     Eigenvalues ---    0.00230   0.00230   0.00230   0.01775   0.02474
     Eigenvalues ---    0.03732   0.03782   0.04622   0.05394   0.06274
     Eigenvalues ---    0.08698   0.09209   0.10723   0.13152   0.13847
     Eigenvalues ---    0.14341   0.15454   0.15915   0.16000   0.16000
     Eigenvalues ---    0.16000   0.16000   0.18952   0.19683   0.20361
     Eigenvalues ---    0.20440   0.20836   0.22254   0.33643   0.35132
     Eigenvalues ---    0.43277   0.43863   0.54274   0.54624   0.54680
     Eigenvalues ---    0.54844   0.54944   0.553471000.000001000.00000
     Eigenvalues --- 1000.000001000.000001000.000001000.000001000.00000
     Eigenvalues --- 1000.000001000.000001000.000001000.000001000.00000
     Eigenvalues --- 1000.000001000.000001000.000001000.000001000.00000
     Eigenvalues --- 1000.000001000.000001000.000001000.000001000.00000
     Eigenvalues --- 1000.000001000.000001000.000001000.000001000.00000
     Eigenvalues --- 1000.000001000.000001000.000001000.000001000.00000
     Eigenvalues --- 1000.000001000.000001000.000001000.000001000.00000
     Eigenvalues --- 1000.000001000.000001000.000001000.000001000.00000
     Eigenvalues --- 1000.00000
 RFO step:  Lambda=-1.38783799D-03 EMin= 2.30000000D-03
 Linear search not attempted -- first point.
 Iteration  1 RMS(Cart)=  0.01793237 RMS(Int)=  0.00008073
 Iteration  2 RMS(Cart)=  0.00006664 RMS(Int)=  0.00003752
 Iteration  3 RMS(Cart)=  0.00000001 RMS(Int)=  0.00003752
 Iteration  1 RMS(Cart)=  0.00000083 RMS(Int)=  0.00000145
 Variable       Old X    -DE/DX   Delta X   Delta X   Delta X     New X
                                 (Linear)    (Quad)   (Total)
    R1        3.10319  -0.00083   0.00000  -0.00189  -0.00189   3.10130
    R2        3.11029  -0.00044   0.00000  -0.00102  -0.00102   3.10928
    R3        3.07737  -0.00217   0.00000   0.00873   0.00869   3.08606
    R4        5.51326   0.00769   0.00000   0.04823   0.04823   5.56149
    R5        3.19520   0.00125   0.00000   0.00175   0.00171   3.19691
    R6        1.81970   0.00002   0.00000   0.00003   0.00003   1.81974
    R7        1.82168   0.00011   0.00000   0.00020   0.00020   1.82188
    R8        3.87519   0.00192   0.00000   0.04974   0.04975   3.92494
    R9        4.55011   0.00737   0.00000   0.07018   0.07022   4.62033
   R10        3.72021   0.00091   0.00000   0.00460   0.00460   3.72481
   R11        3.74644   0.00396   0.00000   0.02072   0.02072   3.76716
   R12        3.69438   0.00273   0.00000   0.01323   0.01323   3.70761
   R13        1.82483   0.00125   0.00000   0.00229   0.00229   1.82712
   R14        1.81882  -0.00046   0.00000  -0.00084  -0.00084   1.81797
   R15        1.82118   0.00005   0.00000   0.00009   0.00009   1.82127
   R16        1.81525  -0.00003   0.00000  -0.00006  -0.00006   1.81519
    A1        1.87881   0.00016   0.00000  -0.00039  -0.00043   1.87837
    A2        2.06640   0.00069   0.00000   0.00232   0.00235   2.06874
    A3        2.12761  -0.00035   0.00000  -0.00208  -0.00208   2.12553
    A4        1.84268  -0.00043   0.00000  -0.00749  -0.00750   1.83518
    A5        1.96857   0.00092   0.00000  -0.00030  -0.00027   1.96830
    A6        2.27668   0.00019   0.00000   0.00255   0.00258   2.27926
    A7        1.98615  -0.00019   0.00000  -0.00781  -0.00782   1.97833
    A8        1.71611  -0.00139   0.00000   0.01311   0.01306   1.72917
    A9        2.02313  -0.00013   0.00000  -0.00078  -0.00078   2.02235
   A10        1.99882  -0.00004   0.00000  -0.00022  -0.00022   1.99859
   A11        1.82114   0.00366   0.00000   0.00000  -0.00001   1.82113
   A12        1.77561   0.00114   0.00000   0.00707   0.00702   1.78263
   A13        1.64096   0.00160   0.00000   0.00867   0.00863   1.64959
   A14        2.39539  -0.00067   0.00000  -0.00568  -0.00567   2.38971
   A15        1.18735  -0.00267   0.00000  -0.00984  -0.00976   1.17758
   A16        1.97349  -0.00034   0.00000  -0.00093  -0.00095   1.97254
   A17        1.98529   0.00015   0.00000   0.00378   0.00377   1.98906
   A18        1.83279   0.00130   0.00000  -0.00177  -0.00180   1.83099
   A19        1.44397   0.00188   0.00000   0.01245   0.01238   1.45636
   A20        1.30817   0.00224   0.00000   0.01496   0.01489   1.32306
   A21        1.99358   0.00135   0.00000   0.01153   0.01143   2.00501
   A22        1.82399  -0.00118   0.00000  -0.00800  -0.00799   1.81599
   A23        1.83239  -0.00154   0.00000  -0.00795  -0.00792   1.82446
   A24        2.03567   0.00039   0.00000   0.00402   0.00403   2.03969
   A25        2.00589  -0.00080   0.00000  -0.00758  -0.00755   1.99833
   A26        2.30994  -0.00111   0.00000  -0.00687  -0.00687   2.30308
   A27        2.22354  -0.00116   0.00000  -0.00717  -0.00717   2.21637
   A28        2.47859   0.00122   0.00000   0.00818   0.00817   2.48676
   A29        3.02013  -0.00137   0.00000  -0.01161  -0.01156   3.00858
   A30        3.06013  -0.00013   0.00000   0.00092   0.00090   3.06103
    D1       -0.55056  -0.00063   0.00000  -0.00439  -0.00438  -0.55493
    D2        1.70706   0.00143   0.00000  -0.00320  -0.00317   1.70389
    D3        2.57807  -0.00042   0.00000   0.00179   0.00178   2.57985
    D4       -2.67792  -0.00025   0.00000   0.00909   0.00905  -2.66886
    D5        2.64795   0.00064   0.00000   0.00562   0.00562   2.65356
    D6        0.33621  -0.00119   0.00000   0.00305   0.00302   0.33924
    D7       -0.47918   0.00042   0.00000  -0.00121  -0.00123  -0.48041
    D8       -1.59959   0.00010   0.00000  -0.00839  -0.00835  -1.60794
    D9        2.55763   0.00093   0.00000   0.00398   0.00400   2.56163
   D10        0.53714  -0.00110   0.00000  -0.01153  -0.01154   0.52560
   D11       -1.50930  -0.00022   0.00000  -0.00602  -0.00602  -1.51533
   D12       -0.60020   0.00118   0.00000   0.01167   0.01169  -0.58850
   D13       -2.62069  -0.00085   0.00000  -0.00384  -0.00385  -2.62453
   D14        1.61605   0.00004   0.00000   0.00167   0.00167   1.61772
   D15       -0.01284  -0.00044   0.00000  -0.01148  -0.01144  -0.02428
   D16       -2.06943  -0.00025   0.00000  -0.00189  -0.00195  -2.07138
   D17        2.12810  -0.00043   0.00000  -0.00600  -0.00600   2.12209
   D18       -2.14312  -0.00060   0.00000  -0.00346  -0.00349  -2.14661
   D19        2.07152  -0.00020   0.00000   0.00060   0.00066   2.07219
   D20        0.01982  -0.00032   0.00000  -0.00293  -0.00305   0.01677
   D21        2.21015   0.00079   0.00000   0.00433   0.00442   2.21457
   D22       -0.97643  -0.00095   0.00000   0.00154   0.00150  -0.97494
   D23       -1.54004   0.00061   0.00000   0.00223   0.00222  -1.53782
   D24       -0.45204  -0.00130   0.00000  -0.00189  -0.00187  -0.45391
   D25        0.76720   0.00183   0.00000   0.01820   0.01827   0.78548
   D26        2.75973  -0.00008   0.00000   0.00939   0.00936   2.76909
   D27       -2.51432   0.00073   0.00000   0.00190   0.00194  -2.51237
   D28       -2.04159  -0.00058   0.00000   0.00148   0.00153  -2.04006
   D29       -3.04013   0.00128   0.00000   0.00561   0.00559  -3.03454
   D30        1.94002  -0.00158   0.00000  -0.01237  -0.01246   1.92756
   D31       -0.04754   0.00012   0.00000  -0.00358  -0.00356  -0.05110
   D32       -2.16470  -0.00005   0.00000  -0.00346  -0.00349  -2.16818
   D33       -2.04482  -0.00016   0.00000  -0.00347  -0.00350  -2.04832
   D34        0.03634  -0.00049   0.00000  -0.00894  -0.00894   0.02740
   D35        2.14000  -0.00021   0.00000  -0.00323  -0.00328   2.13673
         Item               Value     Threshold  Converged?
 Maximum Force            0.006148     0.000450     NO 
 RMS     Force            0.001403     0.000300     NO 
 Maximum Displacement     0.062839     0.001800     NO 
 RMS     Displacement     0.017930     0.001200     NO 
 Predicted change in Energy=-7.045349D-04
 GradGradGradGradGradGradGradGradGradGradGradGradGradGradGradGradGradGrad

                          Input orientation:                          
 ---------------------------------------------------------------------
 Center     Atomic      Atomic             Coordinates (Angstroms)
 Number     Number       Type             X           Y           Z
 ---------------------------------------------------------------------
      1         14           0       -1.920491   -0.043010   -0.135586
      2          8           0       -2.787664    1.330427   -0.370120
      3          8           0       -2.980380   -1.300942   -0.097548
      4          8           0       -0.635059   -0.328381   -1.101586
      5         40           0        1.010922   -0.000443    0.121972
      6          1           0       -3.587981    1.237171   -0.897466
      7          1           0       -2.611115   -2.143917   -0.384811
      8          8           0       -1.106713    0.192622    1.328723
      9          1           0       -1.240119    1.042009    1.770972
     10          8           0        1.337294   -1.476485    1.386867
     11          1           0        1.003708   -1.650371    2.272296
     12          8           0        1.071287    1.822421    0.926680
     13          1           0        1.742940    2.498263    0.781825
     14          8           0        2.556525   -0.057179   -1.085202
     15          1           0        3.363876   -0.544893   -1.266825
 ---------------------------------------------------------------------
                    Distance matrix (angstroms):
                    1          2          3          4          5
     1  Si   0.000000
     2  O    1.641135   0.000000
     3  O    1.645358   2.652458   0.000000
     4  O    1.633073   2.814319   2.730292   0.000000
     5  Zr   2.943014   4.054951   4.203567   2.076991   0.000000
     6  H    2.236034   0.962963   2.729664   3.348487   4.870406
     7  H    2.225508   3.478858   0.964097   2.777542   4.239159
     8  O    1.691732   2.646934   2.788477   2.529881   2.444974
     9  H    2.296767   2.657510   3.465443   3.239699   2.978773
    10  O    3.871160   5.289711   4.569093   3.376495   1.971085
    11  H    4.114905   5.499274   4.648786   3.976970   2.710388
    12  O    3.682252   4.100640   5.217321   3.413418   1.993497
    13  H    4.551971   4.818422   6.125112   4.146327   2.686036
    14  O    4.576642   5.567509   5.760184   3.203128   1.961983
    15  H    5.427350   6.493255   6.495260   4.008200   2.785961
                    6          7          8          9         10
     6  H    0.000000
     7  H    3.556521   0.000000
     8  O    3.493378   3.264788   0.000000
     9  H    3.559650   4.083768   0.966871   0.000000
    10  O    6.069633   4.378841   2.960147   3.624004   0.000000
    11  H    6.282428   4.513397   2.956490   3.540479   0.962029
    12  O    5.037738   5.568836   2.749830   2.581563   3.341453
    13  H    5.729667   6.470601   3.706157   3.463773   4.040946
    14  O    6.282161   5.616897   4.394172   4.876520   3.100336
    15  H    7.186133   6.247828   5.221778   5.739620   3.466552
                   11         12         13         14         15
    11  H    0.000000
    12  O    3.724988   0.000000
    13  H    4.469802   0.963776   0.000000
    14  O    4.027691   3.128338   3.267720   0.000000
    15  H    4.395208   3.958738   4.010636   0.960556   0.000000
 Stoichiometry    H6O7SiZr
 Framework group  C1[X(H6O7SiZr)]
 Deg. of freedom    39
 Full point group                 C1      NOp   1
 Largest Abelian subgroup         C1      NOp   1
 Largest concise Abelian subgroup C1      NOp   1
                         Standard orientation:                         
 ---------------------------------------------------------------------
 Center     Atomic      Atomic             Coordinates (Angstroms)
 Number     Number       Type             X           Y           Z
 ---------------------------------------------------------------------
      1         14           0       -1.861729   -0.039879   -0.145273
      2          8           0       -2.730563    1.340591   -0.326252
      3          8           0       -2.927031   -1.290351   -0.052249
      4          8           0       -0.634470   -0.330745   -1.182654
      5         40           0        1.079735   -0.019209   -0.052018
      6          1           0       -3.559787    1.255051   -0.808299
      7          1           0       -2.580607   -2.134844   -0.362584
      8          8           0       -0.965613    0.184379    1.271993
      9          1           0       -1.067838    1.033011    1.723893
     10          8           0        1.465509   -1.502333    1.187618
     11          1           0        1.180704   -1.677195    2.089732
     12          8           0        1.198388    1.800110    0.754228
     13          1           0        1.865827    2.471688    0.574308
     14          8           0        2.554938   -0.082388   -1.343979
     15          1           0        3.347266   -0.575157   -1.572150
 ---------------------------------------------------------------------
 Rotational constants (GHZ):           1.7748951           0.6318790           0.6017810
 Basis read from rwf:  (5D, 7F)
 Pseudo-potential data read from rwf file.
 There are   178 symmetry adapted cartesian basis functions of A   symmetry.
 There are   168 symmetry adapted basis functions of A   symmetry.
   168 basis functions,   339 primitive gaussians,   178 cartesian basis functions
    44 alpha electrons       44 beta electrons
       nuclear repulsion energy       668.0899952273 Hartrees.
 NAtoms=   15 NActive=   15 NUniq=   15 SFac= 1.00D+00 NAtFMM=   60 NAOKFM=F Big=F
 Integral buffers will be    131072 words long.
 Raffenetti 2 integral format.
 Two-electron integral symmetry is turned on.
 One-electron integrals computed using PRISM.
   1 Symmetry operations used in ECPInt.
 ECPInt:  NShTT=    1770 NPrTT=   10201 LenC2=    1671 LenP2D=    6784.
 LDataN:  DoStor=T MaxTD1= 5 Len=  102
 NBasis=   168 RedAO= T EigKep=  7.71D-03  NBF=   168
 NBsUse=   168 1.00D-06 EigRej= -1.00D+00 NBFU=   168
 Defaulting to unpruned grid for atomic number  40.
 Initial guess from the checkpoint file:  "/localscratch/sarashs.33453164.0/Gau-25891.chk"
 B after Tr=    -0.000000    0.000000   -0.000000
         Rot=    0.999997    0.002264   -0.000296    0.000538 Ang=   0.27 deg.
 ExpMin= 2.43D-02 ExpMax= 1.61D+04 ExpMxC= 2.43D+03 IAcc=3 IRadAn=         5 AccDes= 0.00D+00
 Harris functional with IExCor=  402 and IRadAn=       5 diagonalized for initial guess.
 HarFok:  IExCor=  402 AccDes= 0.00D+00 IRadAn=         5 IDoV= 1 UseB2=F ITyADJ=14
 ICtDFT=  3500011 ScaDFX=  1.000000  1.000000  1.000000  1.000000
 Defaulting to unpruned grid for atomic number  40.
 FoFCou: FMM=F IPFlag=           0 FMFlag=      100000 FMFlg1=           0
         NFxFlg=           0 DoJE=T BraDBF=F KetDBF=T FulRan=T
         wScrn=  0.000000 ICntrl=       500 IOpCl=  0 I1Cent=   200000004 NGrid=           0
         NMat0=    1 NMatS0=      1 NMatT0=    0 NMatD0=    1 NMtDS0=    0 NMtDT0=    0
 Petite list used in FoFCou.
 Requested convergence on RMS density matrix=1.00D-08 within 128 cycles.
 Requested convergence on MAX density matrix=1.00D-06.
 Requested convergence on             energy=1.00D-06.
 No special actions if energy rises.
 Defaulting to unpruned grid for atomic number  40.
 Defaulting to unpruned grid for atomic number  40.
 Defaulting to unpruned grid for atomic number  40.
 Defaulting to unpruned grid for atomic number  40.
 Defaulting to unpruned grid for atomic number  40.
 Defaulting to unpruned grid for atomic number  40.
 Defaulting to unpruned grid for atomic number  40.
 Defaulting to unpruned grid for atomic number  40.
 Defaulting to unpruned grid for atomic number  40.
 Defaulting to unpruned grid for atomic number  40.
 Defaulting to unpruned grid for atomic number  40.
 Defaulting to unpruned grid for atomic number  40.
 Defaulting to unpruned grid for atomic number  40.
 Defaulting to unpruned grid for atomic number  40.
 Defaulting to unpruned grid for atomic number  40.
 Defaulting to unpruned grid for atomic number  40.
 SCF Done:  E(RB3LYP) =  -866.687552894     A.U. after   10 cycles
            NFock= 10  Conv=0.47D-08     -V/T= 2.0445
   1 Symmetry operations used in ECPInt.
 ECPInt:  NShTT=    1770 NPrTT=   10201 LenC2=    1671 LenP2D=    6784.
 LDataN:  DoStor=T MaxTD1= 6 Len=  172
 Calling FoFJK, ICntrl=      2127 FMM=F ISym2X=0 I1Cent= 0 IOpClX= 0 NMat=1 NMatS=1 NMatT=0.
 Defaulting to unpruned grid for atomic number  40.
 Defaulting to unpruned grid for atomic number  40.
 Defaulting to unpruned grid for atomic number  40.
 Defaulting to unpruned grid for atomic number  40.
 Defaulting to unpruned grid for atomic number  40.
 Defaulting to unpruned grid for atomic number  40.
 Defaulting to unpruned grid for atomic number  40.
 Defaulting to unpruned grid for atomic number  40.
 Defaulting to unpruned grid for atomic number  40.
 Defaulting to unpruned grid for atomic number  40.
 Defaulting to unpruned grid for atomic number  40.
 Defaulting to unpruned grid for atomic number  40.
 Defaulting to unpruned grid for atomic number  40.
 Defaulting to unpruned grid for atomic number  40.
 Defaulting to unpruned grid for atomic number  40.
 Defaulting to unpruned grid for atomic number  40.
 ***** Axes restored to original set *****
 -------------------------------------------------------------------
 Center     Atomic                   Forces (Hartrees/Bohr)
 Number     Number              X              Y              Z
 -------------------------------------------------------------------
      1       14          -0.005151408   -0.002090256   -0.007902331
      2        8          -0.000063958    0.000336027    0.000259132
      3        8          -0.000056580   -0.000246762    0.000432793
      4        8           0.001213264    0.003067256    0.011621093
      5       40           0.006868283    0.000741910   -0.004023756
      6        1           0.000002098    0.000036232   -0.000019754
      7        1          -0.000065647    0.000050451   -0.000107311
      8        8          -0.002595558   -0.000199016    0.001349998
      9        1           0.000558061    0.000162911   -0.000531786
     10        8           0.001201154    0.000331900   -0.001764856
     11        1          -0.000338447    0.000265774    0.000304303
     12        8           0.000346027   -0.002080700   -0.000883857
     13        1           0.000296441   -0.000348209   -0.000409653
     14        8          -0.002208167   -0.000209743    0.001930982
     15        1          -0.000005564    0.000182226   -0.000254996
 -------------------------------------------------------------------
 Cartesian Forces:  Max     0.011621093 RMS     0.002716911

 GradGradGradGradGradGradGradGradGradGradGradGradGradGradGradGradGradGrad
 Berny optimization.
 Using GEDIIS/GDIIS optimizer.
 FormGI is forming the generalized inverse of G from B-inverse, IUseBI=4.
 Internal  Forces:  Max     0.005554682 RMS     0.001502696
 Search for a local minimum.
 Step number   2 out of a maximum of   91
 All quantities printed in internal units (Hartrees-Bohrs-Radians)
 Mixed Optimization -- En-DIIS/RFO-DIIS
 Update second derivatives using D2CorX and points    1    2
 DE= -7.74D-04 DEPred=-7.05D-04 R= 1.10D+00
 TightC=F SS=  1.41D+00  RLast= 1.16D-01 DXNew= 5.0454D-01 3.4932D-01
 Trust test= 1.10D+00 RLast= 1.16D-01 DXMaxT set to 3.49D-01
 ITU=  1  0
 Use linear search instead of GDIIS.
     Eigenvalues ---    0.00230   0.00230   0.00230   0.01771   0.02488
     Eigenvalues ---    0.03731   0.03782   0.04635   0.05387   0.06064
     Eigenvalues ---    0.06576   0.09180   0.10819   0.12944   0.13419
     Eigenvalues ---    0.14202   0.15463   0.15815   0.15965   0.16000
     Eigenvalues ---    0.16000   0.16006   0.19473   0.19882   0.20343
     Eigenvalues ---    0.20779   0.22259   0.25250   0.33703   0.35217
     Eigenvalues ---    0.43305   0.43944   0.54339   0.54625   0.54680
     Eigenvalues ---    0.54844   0.54999   0.553471000.000001000.00000
     Eigenvalues --- 1000.000001000.000001000.000001000.000001000.00000
     Eigenvalues --- 1000.000001000.000001000.000001000.000001000.00000
     Eigenvalues --- 1000.000001000.000001000.000001000.000001000.00000
     Eigenvalues --- 1000.000001000.000001000.000001000.000001000.00000
     Eigenvalues --- 1000.000001000.000001000.000001000.000001000.00000
     Eigenvalues --- 1000.000001000.000001000.000001000.000001000.00000
     Eigenvalues --- 1000.000001000.000001000.000001000.000001000.00000
     Eigenvalues --- 1000.000001000.000001000.000001000.000001000.00000
     Eigenvalues --- 1000.00000
 RFO step:  Lambda=-2.35816402D-04 EMin= 2.29962354D-03
 Quartic linear search produced a step of  0.16358.
 Iteration  1 RMS(Cart)=  0.01008506 RMS(Int)=  0.00004785
 Iteration  2 RMS(Cart)=  0.00005155 RMS(Int)=  0.00002233
 Iteration  3 RMS(Cart)=  0.00000000 RMS(Int)=  0.00002233
 Iteration  1 RMS(Cart)=  0.00000144 RMS(Int)=  0.00000251
 Iteration  2 RMS(Cart)=  0.00000115 RMS(Int)=  0.00000271
 Iteration  3 RMS(Cart)=  0.00000092 RMS(Int)=  0.00000310
 Variable       Old X    -DE/DX   Delta X   Delta X   Delta X     New X
                                 (Linear)    (Quad)   (Total)
    R1        3.10130   0.00031  -0.00031   0.00081   0.00050   3.10180
    R2        3.10928   0.00024  -0.00017   0.00063   0.00046   3.10974
    R3        3.08606  -0.00465   0.00142   0.00127   0.00268   3.08874
    R4        5.56149   0.00426   0.00789   0.00407   0.01195   5.57344
    R5        3.19691   0.00130   0.00028   0.00042   0.00070   3.19761
    R6        1.81974   0.00001   0.00001   0.00001   0.00002   1.81975
    R7        1.82188  -0.00004   0.00003  -0.00008  -0.00004   1.82184
    R8        3.92494  -0.00483   0.00814   0.00373   0.01186   3.93680
    R9        4.62033   0.00351   0.01149   0.02303   0.03453   4.65486
   R10        3.72481  -0.00124   0.00075  -0.00730  -0.00655   3.71827
   R11        3.76716  -0.00272   0.00339  -0.01656  -0.01317   3.75399
   R12        3.70761  -0.00277   0.00216  -0.01570  -0.01353   3.69408
   R13        1.82712  -0.00018   0.00038  -0.00037   0.00000   1.82713
   R14        1.81797   0.00035  -0.00014   0.00074   0.00060   1.81857
   R15        1.82127   0.00002   0.00002   0.00005   0.00007   1.82134
   R16        1.81519  -0.00005  -0.00001  -0.00010  -0.00011   1.81507
    A1        1.87837   0.00004  -0.00007   0.00035   0.00025   1.87863
    A2        2.06874   0.00101   0.00038   0.00089   0.00128   2.07003
    A3        2.12553  -0.00005  -0.00034  -0.00217  -0.00250   2.12303
    A4        1.83518   0.00005  -0.00123  -0.00345  -0.00469   1.83048
    A5        1.96830   0.00158  -0.00004  -0.00010  -0.00013   1.96817
    A6        2.27926   0.00000   0.00042   0.00183   0.00226   2.28152
    A7        1.97833   0.00019  -0.00128  -0.00417  -0.00546   1.97287
    A8        1.72917  -0.00320   0.00214   0.00605   0.00817   1.73734
    A9        2.02235   0.00006  -0.00013   0.00043   0.00030   2.02266
   A10        1.99859   0.00003  -0.00004   0.00023   0.00020   1.99879
   A11        1.82113   0.00555  -0.00000   0.00000  -0.00000   1.82113
   A12        1.78263   0.00095   0.00115   0.00597   0.00708   1.78971
   A13        1.64959   0.00104   0.00141   0.00480   0.00619   1.65578
   A14        2.38971  -0.00089  -0.00093  -0.00382  -0.00474   2.38497
   A15        1.17758  -0.00260  -0.00160  -0.00088  -0.00247   1.17511
   A16        1.97254  -0.00021  -0.00016   0.00006  -0.00014   1.97241
   A17        1.98906  -0.00035   0.00062   0.00515   0.00574   1.99480
   A18        1.83099   0.00146  -0.00029  -0.00311  -0.00339   1.82760
   A19        1.45636   0.00126   0.00203   0.00793   0.00994   1.46630
   A20        1.32306   0.00116   0.00244   0.00551   0.00791   1.33097
   A21        2.00501   0.00039   0.00187   0.00459   0.00638   2.01139
   A22        1.81599  -0.00059  -0.00131  -0.00464  -0.00594   1.81005
   A23        1.82446  -0.00063  -0.00130  -0.00458  -0.00586   1.81860
   A24        2.03969   0.00019   0.00066  -0.00190  -0.00128   2.03841
   A25        1.99833  -0.00037  -0.00124  -0.00557  -0.00682   1.99152
   A26        2.30308  -0.00072  -0.00112  -0.00526  -0.00638   2.29670
   A27        2.21637  -0.00111  -0.00117  -0.00813  -0.00931   2.20706
   A28        2.48676   0.00043   0.00134   0.00402   0.00535   2.49211
   A29        3.00858  -0.00114  -0.00189  -0.00399  -0.00586   3.00271
   A30        3.06103  -0.00019   0.00015  -0.00196  -0.00185   3.05918
    D1       -0.55493  -0.00066  -0.00072  -0.00245  -0.00317  -0.55810
    D2        1.70389   0.00251  -0.00052  -0.00150  -0.00201   1.70188
    D3        2.57985  -0.00096   0.00029  -0.00136  -0.00107   2.57878
    D4       -2.66886  -0.00093   0.00148   0.00408   0.00554  -2.66332
    D5        2.65356   0.00049   0.00092   0.00056   0.00148   2.65504
    D6        0.33924  -0.00222   0.00049  -0.00086  -0.00037   0.33886
    D7       -0.48041   0.00082  -0.00020  -0.00064  -0.00085  -0.48126
    D8       -1.60794   0.00069  -0.00137  -0.00579  -0.00714  -1.61508
    D9        2.56163   0.00072   0.00065   0.00589   0.00657   2.56820
   D10        0.52560  -0.00016  -0.00189  -0.00141  -0.00331   0.52229
   D11       -1.51533   0.00012  -0.00099   0.00236   0.00137  -1.51396
   D12       -0.58850   0.00035   0.00191   0.00725   0.00919  -0.57932
   D13       -2.62453  -0.00054  -0.00063  -0.00005  -0.00069  -2.62522
   D14        1.61772  -0.00025   0.00027   0.00373   0.00399   1.62171
   D15       -0.02428  -0.00016  -0.00187  -0.00915  -0.01100  -0.03528
   D16       -2.07138  -0.00034  -0.00032  -0.00521  -0.00556  -2.07694
   D17        2.12209  -0.00039  -0.00098  -0.00685  -0.00783   2.11426
   D18       -2.14661  -0.00023  -0.00057   0.00375   0.00315  -2.14346
   D19        2.07219  -0.00023   0.00011   0.00760   0.00772   2.07990
   D20        0.01677   0.00009  -0.00050   0.00690   0.00633   0.02310
   D21        2.21457   0.00078   0.00072   0.01226   0.01304   2.22761
   D22       -0.97494  -0.00094   0.00024   0.00037   0.00058  -0.97436
   D23       -1.53782   0.00120   0.00036  -0.00210  -0.00172  -1.53954
   D24       -0.45391  -0.00102  -0.00031   0.00116   0.00085  -0.45306
   D25        0.78548   0.00085   0.00299   0.01035   0.01338   0.79885
   D26        2.76909  -0.00008   0.00153   0.00417   0.00569   2.77478
   D27       -2.51237   0.00083   0.00032   0.00685   0.00718  -2.50519
   D28       -2.04006  -0.00112   0.00025   0.00694   0.00723  -2.03283
   D29       -3.03454   0.00110   0.00091   0.00725   0.00817  -3.02638
   D30        1.92756  -0.00084  -0.00204  -0.00324  -0.00534   1.92222
   D31       -0.05110   0.00007  -0.00058   0.00295   0.00238  -0.04872
   D32       -2.16818  -0.00005  -0.00057   0.00077   0.00020  -2.16798
   D33       -2.04832  -0.00030  -0.00057   0.00389   0.00329  -2.04503
   D34        0.02740  -0.00017  -0.00146   0.00056  -0.00091   0.02649
   D35        2.13673  -0.00028  -0.00054   0.00158   0.00102   2.13774
         Item               Value     Threshold  Converged?
 Maximum Force            0.002774     0.000450     NO 
 RMS     Force            0.000612     0.000300     NO 
 Maximum Displacement     0.034985     0.001800     NO 
 RMS     Displacement     0.010067     0.001200     NO 
 Predicted change in Energy=-1.300781D-04
 GradGradGradGradGradGradGradGradGradGradGradGradGradGradGradGradGradGrad

                          Input orientation:                          
 ---------------------------------------------------------------------
 Center     Atomic      Atomic             Coordinates (Angstroms)
 Number     Number       Type             X           Y           Z
 ---------------------------------------------------------------------
      1         14           0       -1.923389   -0.044082   -0.136493
      2          8           0       -2.788020    1.330910   -0.373160
      3          8           0       -2.985349   -1.300598   -0.098836
      4          8           0       -0.634767   -0.333626   -1.099390
      5         40           0        1.013556    0.001592    0.129697
      6          1           0       -3.586440    1.239464   -0.903706
      7          1           0       -2.616805   -2.144657   -0.383751
      8          8           0       -1.125226    0.192702    1.336626
      9          1           0       -1.258060    1.045670    1.772107
     10          8           0        1.352103   -1.477243    1.382680
     11          1           0        1.017673   -1.654017    2.267563
     12          8           0        1.082365    1.819899    0.926762
     13          1           0        1.758773    2.488469    0.770506
     14          8           0        2.551154   -0.051795   -1.076238
     15          1           0        3.359462   -0.535396   -1.264176
 ---------------------------------------------------------------------
                    Distance matrix (angstroms):
                    1          2          3          4          5
     1  Si   0.000000
     2  O    1.641402   0.000000
     3  O    1.645602   2.653116   0.000000
     4  O    1.634489   2.816840   2.731552   0.000000
     5  Zr   2.949338   4.058563   4.211789   2.083265   0.000000
     6  H    2.236480   0.962972   2.731490   3.350414   4.874445
     7  H    2.225843   3.479798   0.964074   2.778569   4.248474
     8  O    1.692102   2.642682   2.783981   2.540028   2.463248
     9  H    2.296296   2.650342   3.462503   3.245989   2.991296
    10  O    3.884673   5.301822   4.586893   3.378784   1.967621
    11  H    4.125678   5.510581   4.663575   3.976225   2.703984
    12  O    3.693168   4.112029   5.228350   3.419284   1.986527
    13  H    4.560130   4.829207   6.133472   4.146054   2.674050
    14  O    4.572168   5.559943   5.759139   3.198446   1.954823
    15  H    5.424166   6.486026   6.496166   4.002715   2.781099
                    6          7          8          9         10
     6  H    0.000000
     7  H    3.558486   0.000000
     8  O    3.488893   3.263089   0.000000
     9  H    3.552307   4.083148   0.966873   0.000000
    10  O    6.082538   4.395219   2.987975   3.650985   0.000000
    11  H    6.295001   4.525441   2.978092   3.565494   0.962347
    12  O    5.048292   5.578441   2.772944   2.606075   3.339426
    13  H    5.738842   6.476407   3.729409   3.490867   4.033238
    14  O    6.274327   5.618488   4.404255   4.881353   3.084785
    15  H    7.178135   6.251450   5.235143   5.748068   3.452884
                   11         12         13         14         15
    11  H    0.000000
    12  O    3.724248   0.000000
    13  H    4.466609   0.963810   0.000000
    14  O    4.012441   3.110078   3.239023   0.000000
    15  H    4.382747   3.941167   3.980690   0.960496   0.000000
 Stoichiometry    H6O7SiZr
 Framework group  C1[X(H6O7SiZr)]
 Deg. of freedom    39
 Full point group                 C1      NOp   1
 Largest Abelian subgroup         C1      NOp   1
 Largest concise Abelian subgroup C1      NOp   1
                         Standard orientation:                         
 ---------------------------------------------------------------------
 Center     Atomic      Atomic             Coordinates (Angstroms)
 Number     Number       Type             X           Y           Z
 ---------------------------------------------------------------------
      1         14           0       -1.865559   -0.039472   -0.145570
      2          8           0       -2.731225    1.343713   -0.323402
      3          8           0       -2.933746   -1.287915   -0.054055
      4          8           0       -0.637244   -0.332737   -1.183254
      5         40           0        1.082146   -0.018361   -0.049736
      6          1           0       -3.559739    1.261936   -0.807336
      7          1           0       -2.589194   -2.132937   -0.364957
      8          8           0       -0.981549    0.181491    1.280232
      9          1           0       -1.082003    1.032608    1.727840
     10          8           0        1.480622   -1.507922    1.172540
     11          1           0        1.196556   -1.687858    2.074228
     12          8           0        1.211777    1.794120    0.753006
     13          1           0        1.883422    2.458417    0.561873
     14          8           0        2.546862   -0.075831   -1.343042
     15          1           0        3.338971   -0.564464   -1.580429
 ---------------------------------------------------------------------
 Rotational constants (GHZ):           1.7777305           0.6299598           0.5998478
 Basis read from rwf:  (5D, 7F)
 Pseudo-potential data read from rwf file.
 There are   178 symmetry adapted cartesian basis functions of A   symmetry.
 There are   168 symmetry adapted basis functions of A   symmetry.
   168 basis functions,   339 primitive gaussians,   178 cartesian basis functions
    44 alpha electrons       44 beta electrons
       nuclear repulsion energy       667.6093737670 Hartrees.
 NAtoms=   15 NActive=   15 NUniq=   15 SFac= 1.00D+00 NAtFMM=   60 NAOKFM=F Big=F
 Integral buffers will be    131072 words long.
 Raffenetti 2 integral format.
 Two-electron integral symmetry is turned on.
 One-electron integrals computed using PRISM.
   1 Symmetry operations used in ECPInt.
 ECPInt:  NShTT=    1770 NPrTT=   10201 LenC2=    1670 LenP2D=    6775.
 LDataN:  DoStor=T MaxTD1= 5 Len=  102
 NBasis=   168 RedAO= T EigKep=  7.76D-03  NBF=   168
 NBsUse=   168 1.00D-06 EigRej= -1.00D+00 NBFU=   168
 Defaulting to unpruned grid for atomic number  40.
 Initial guess from the checkpoint file:  "/localscratch/sarashs.33453164.0/Gau-25891.chk"
 B after Tr=     0.000000   -0.000000    0.000000
         Rot=    0.999999   -0.001509   -0.000516    0.000198 Ang=  -0.18 deg.
 ExpMin= 2.43D-02 ExpMax= 1.61D+04 ExpMxC= 2.43D+03 IAcc=3 IRadAn=         5 AccDes= 0.00D+00
 Harris functional with IExCor=  402 and IRadAn=       5 diagonalized for initial guess.
 HarFok:  IExCor=  402 AccDes= 0.00D+00 IRadAn=         5 IDoV= 1 UseB2=F ITyADJ=14
 ICtDFT=  3500011 ScaDFX=  1.000000  1.000000  1.000000  1.000000
 Defaulting to unpruned grid for atomic number  40.
 FoFCou: FMM=F IPFlag=           0 FMFlag=      100000 FMFlg1=           0
         NFxFlg=           0 DoJE=T BraDBF=F KetDBF=T FulRan=T
         wScrn=  0.000000 ICntrl=       500 IOpCl=  0 I1Cent=   200000004 NGrid=           0
         NMat0=    1 NMatS0=      1 NMatT0=    0 NMatD0=    1 NMtDS0=    0 NMtDT0=    0
 Petite list used in FoFCou.
 Requested convergence on RMS density matrix=1.00D-08 within 128 cycles.
 Requested convergence on MAX density matrix=1.00D-06.
 Requested convergence on             energy=1.00D-06.
 No special actions if energy rises.
 Defaulting to unpruned grid for atomic number  40.
 Defaulting to unpruned grid for atomic number  40.
 Defaulting to unpruned grid for atomic number  40.
 Defaulting to unpruned grid for atomic number  40.
 Defaulting to unpruned grid for atomic number  40.
 Defaulting to unpruned grid for atomic number  40.
 Defaulting to unpruned grid for atomic number  40.
 Defaulting to unpruned grid for atomic number  40.
 Defaulting to unpruned grid for atomic number  40.
 Defaulting to unpruned grid for atomic number  40.
 Defaulting to unpruned grid for atomic number  40.
 Defaulting to unpruned grid for atomic number  40.
 Defaulting to unpruned grid for atomic number  40.
 Defaulting to unpruned grid for atomic number  40.
 Defaulting to unpruned grid for atomic number  40.
 Defaulting to unpruned grid for atomic number  40.
 SCF Done:  E(RB3LYP) =  -866.687697911     A.U. after   10 cycles
            NFock= 10  Conv=0.39D-08     -V/T= 2.0445
   1 Symmetry operations used in ECPInt.
 ECPInt:  NShTT=    1770 NPrTT=   10201 LenC2=    1670 LenP2D=    6775.
 LDataN:  DoStor=T MaxTD1= 6 Len=  172
 Calling FoFJK, ICntrl=      2127 FMM=F ISym2X=0 I1Cent= 0 IOpClX= 0 NMat=1 NMatS=1 NMatT=0.
 Defaulting to unpruned grid for atomic number  40.
 Defaulting to unpruned grid for atomic number  40.
 Defaulting to unpruned grid for atomic number  40.
 Defaulting to unpruned grid for atomic number  40.
 Defaulting to unpruned grid for atomic number  40.
 Defaulting to unpruned grid for atomic number  40.
 Defaulting to unpruned grid for atomic number  40.
 Defaulting to unpruned grid for atomic number  40.
 Defaulting to unpruned grid for atomic number  40.
 Defaulting to unpruned grid for atomic number  40.
 Defaulting to unpruned grid for atomic number  40.
 Defaulting to unpruned grid for atomic number  40.
 Defaulting to unpruned grid for atomic number  40.
 Defaulting to unpruned grid for atomic number  40.
 Defaulting to unpruned grid for atomic number  40.
 Defaulting to unpruned grid for atomic number  40.
 ***** Axes restored to original set *****
 -------------------------------------------------------------------
 Center     Atomic                   Forces (Hartrees/Bohr)
 Number     Number              X              Y              Z
 -------------------------------------------------------------------
      1       14          -0.004438271   -0.002439873   -0.007949385
      2        8          -0.000163839    0.000390812   -0.000053658
      3        8          -0.000088451   -0.000291042    0.000247081
      4        8           0.001108316    0.003941481    0.013649718
      5       40           0.002556750   -0.001007876   -0.005998756
      6        1           0.000052804    0.000047276   -0.000055814
      7        1          -0.000066406    0.000084175   -0.000161393
      8        8          -0.000566981   -0.000250831    0.000526018
      9        1           0.000297410    0.000041446   -0.000589806
     10        8           0.000723132   -0.000716560    0.000231640
     11        1          -0.000065932    0.000072128    0.000223261
     12        8           0.000274062    0.000240230    0.000350510
     13        1           0.000141952   -0.000034239   -0.000171262
     14        8           0.000234212   -0.000227676    0.000081642
     15        1           0.000001242    0.000150549   -0.000329796
 -------------------------------------------------------------------
 Cartesian Forces:  Max     0.013649718 RMS     0.002743241

 GradGradGradGradGradGradGradGradGradGradGradGradGradGradGradGradGradGrad
 Berny optimization.
 Using GEDIIS/GDIIS optimizer.
 FormGI is forming the generalized inverse of G from B-inverse, IUseBI=4.
 Internal  Forces:  Max     0.006131533 RMS     0.001538141
 Search for a local minimum.
 Step number   3 out of a maximum of   91
 All quantities printed in internal units (Hartrees-Bohrs-Radians)
 Mixed Optimization -- En-DIIS/RFO-DIIS
 Swapping is turned off.
 Update second derivatives using D2CorX and points    1    2    3
 DE= -1.45D-04 DEPred=-1.30D-04 R= 1.11D+00
 TightC=F SS=  1.41D+00  RLast= 6.22D-02 DXNew= 5.8749D-01 1.8670D-01
 Trust test= 1.11D+00 RLast= 6.22D-02 DXMaxT set to 3.49D-01
 ITU=  1  1  0
     Eigenvalues ---    0.00229   0.00230   0.00231   0.01703   0.02443
     Eigenvalues ---    0.03684   0.03780   0.04544   0.04985   0.05918
     Eigenvalues ---    0.06500   0.09176   0.10907   0.12404   0.14034
     Eigenvalues ---    0.14261   0.15524   0.15744   0.15952   0.16000
     Eigenvalues ---    0.16000   0.16014   0.19583   0.20088   0.20324
     Eigenvalues ---    0.20726   0.22285   0.26978   0.33814   0.35483
     Eigenvalues ---    0.43307   0.43990   0.54373   0.54626   0.54684
     Eigenvalues ---    0.54845   0.54986   0.553471000.000001000.00000
     Eigenvalues --- 1000.000001000.000001000.000001000.000001000.00000
     Eigenvalues --- 1000.000001000.000001000.000001000.000001000.00000
     Eigenvalues --- 1000.000001000.000001000.000001000.000001000.00000
     Eigenvalues --- 1000.000001000.000001000.000001000.000001000.00000
     Eigenvalues --- 1000.000001000.000001000.000001000.000001000.00000
     Eigenvalues --- 1000.000001000.000001000.000001000.000001000.00000
     Eigenvalues --- 1000.000001000.000001000.000001000.000001000.00000
     Eigenvalues --- 1000.000001000.000001000.000001000.000001000.00000
     Eigenvalues --- 1000.00000
 En-DIIS/RFO-DIIS/Sim-DIIS IScMMF=       -3 using points:     3    2
 RFO step:  Lambda=-4.54568227D-05.
 DidBck=F Rises=F RFO-DIIS coefs:    1.38026   -0.38026
 Iteration  1 RMS(Cart)=  0.00567034 RMS(Int)=  0.00003046
 Iteration  2 RMS(Cart)=  0.00002179 RMS(Int)=  0.00001297
 Iteration  3 RMS(Cart)=  0.00000000 RMS(Int)=  0.00001297
 Iteration  1 RMS(Cart)=  0.00000081 RMS(Int)=  0.00000142
 Variable       Old X    -DE/DX   Delta X   Delta X   Delta X     New X
                                 (Linear)    (Quad)   (Total)
    R1        3.10180   0.00044   0.00019   0.00094   0.00113   3.10293
    R2        3.10974   0.00026   0.00018   0.00053   0.00070   3.11044
    R3        3.08874  -0.00583   0.00102  -0.00261  -0.00159   3.08714
    R4        5.57344   0.00377   0.00454  -0.00609  -0.00156   5.57188
    R5        3.19761   0.00129   0.00027  -0.00028  -0.00000   3.19761
    R6        1.81975  -0.00002   0.00001  -0.00004  -0.00003   1.81972
    R7        1.82184  -0.00005  -0.00002  -0.00009  -0.00010   1.82173
    R8        3.93680  -0.00586   0.00451  -0.00498  -0.00047   3.93633
    R9        4.65486   0.00203   0.01313  -0.00410   0.00903   4.66390
   R10        3.71827   0.00089  -0.00249   0.00666   0.00417   3.72243
   R11        3.75399   0.00028  -0.00501   0.00533   0.00033   3.75432
   R12        3.69408   0.00034  -0.00515   0.00536   0.00021   3.69430
   R13        1.82713  -0.00027   0.00000  -0.00047  -0.00047   1.82666
   R14        1.81857   0.00022   0.00023   0.00027   0.00050   1.81907
   R15        1.82134   0.00010   0.00002   0.00020   0.00022   1.82156
   R16        1.81507  -0.00001  -0.00004   0.00000  -0.00004   1.81503
    A1        1.87863  -0.00006   0.00010   0.00040   0.00049   1.87912
    A2        2.07003   0.00091   0.00049  -0.00109  -0.00061   2.06942
    A3        2.12303   0.00017  -0.00095  -0.00115  -0.00208   2.12095
    A4        1.83048   0.00036  -0.00178   0.00038  -0.00141   1.82907
    A5        1.96817   0.00182  -0.00005  -0.00011  -0.00016   1.96801
    A6        2.28152  -0.00012   0.00086   0.00074   0.00159   2.28311
    A7        1.97287   0.00046  -0.00207   0.00044  -0.00164   1.97123
    A8        1.73734  -0.00381   0.00311   0.00006   0.00317   1.74051
    A9        2.02266   0.00006   0.00012   0.00029   0.00041   2.02306
   A10        1.99879  -0.00001   0.00007  -0.00011  -0.00004   1.99875
   A11        1.82113   0.00613  -0.00000   0.00000   0.00000   1.82113
   A12        1.78971   0.00065   0.00269   0.00211   0.00478   1.79449
   A13        1.65578   0.00084   0.00235   0.00125   0.00360   1.65938
   A14        2.38497  -0.00091  -0.00180  -0.00143  -0.00322   2.38175
   A15        1.17511  -0.00279  -0.00094   0.00080  -0.00014   1.17497
[...]
 ! A17   A(4,5,12)             115.186          -DE/DX =   -0.001               !
 ! A18   A(4,5,14)             103.8259         -DE/DX =    0.0017              !
 ! A19   A(8,5,10)              85.3672         -DE/DX =    0.0005              !
 ! A20   A(8,5,12)              75.822          -DE/DX =    0.0004              !
 ! A21   A(10,5,12)            115.0802         -DE/DX =    0.0                 !
 ! A22   A(10,5,14)            104.2887         -DE/DX =    0.0                 !
 ! A23   A(12,5,14)            103.7152         -DE/DX =   -0.0001              !
 ! A24   A(1,8,9)              116.4686         -DE/DX =    0.0003              !
 ! A25   A(5,8,9)              111.3362         -DE/DX =    0.0002              !
 ! A26   A(5,10,11)            131.4053         -DE/DX =    0.0                 !
 ! A27   A(5,12,13)            125.3646         -DE/DX =    0.0                 !
 ! A28   A(5,14,15)            148.9798         -DE/DX =   -0.0002              !
 ! A29   L(8,5,14,4,-1)        171.2094         -DE/DX =   -0.0008              !
 ! A30   L(8,5,14,4,-2)        173.395          -DE/DX =   -0.0002              !
 ! D1    D(3,1,2,6)            -33.6408         -DE/DX =   -0.0005              !
 ! D2    D(4,1,2,6)             96.1694         -DE/DX =    0.0025              !
 ! D3    D(5,1,2,6)            146.298          -DE/DX =   -0.0009              !
 ! D4    D(8,1,2,6)           -154.1571         -DE/DX =   -0.0012              !
 ! D5    D(2,1,3,7)            150.4925         -DE/DX =    0.0003              !
 ! D6    D(4,1,3,7)             17.6299         -DE/DX =   -0.0021              !
 ! D7    D(5,1,3,7)            -29.4384         -DE/DX =    0.0008              !
 ! D8    D(8,1,3,7)            -94.2689         -DE/DX =    0.001               !
 ! D9    D(2,1,5,10)           148.5395         -DE/DX =    0.0004              !
 ! D10   D(2,1,5,12)            31.2257         -DE/DX =    0.0002              !
 ! D11   D(2,1,5,14)           -84.3206         -DE/DX =    0.0001              !
 ! D12   D(3,1,5,10)           -31.5373         -DE/DX =   -0.0001              !
 ! D13   D(3,1,5,12)          -148.8511         -DE/DX =   -0.0003              !
 ! D14   D(3,1,5,14)            95.6025         -DE/DX =   -0.0004              !
 ! D15   D(2,1,8,9)             -4.9099         -DE/DX =    0.0002              !
 ! D16   D(3,1,8,9)           -122.0915         -DE/DX =   -0.0001              !
 ! D17   D(4,1,8,9)            118.0067         -DE/DX =   -0.0002              !
 ! D18   D(4,5,8,9)           -121.9813         -DE/DX =    0.0                 !
 ! D19   D(10,5,8,9)           120.8509         -DE/DX =   -0.0003              !
 ! D20   D(12,5,8,9)             3.5213         -DE/DX =    0.0                 !
 ! D21   D(9,8,14,15)          139.3853         -DE/DX =    0.0006              !
 ! D22   D(1,5,10,11)          -59.8079         -DE/DX =   -0.0007              !
 ! D23   D(4,5,10,11)          -92.5556         -DE/DX =    0.0017              !
 ! D24   D(8,5,10,11)          -29.4945         -DE/DX =   -0.0008              !
 ! D25   D(12,5,10,11)          42.4918         -DE/DX =    0.0                 !
 ! D26   D(14,5,10,11)         155.4047         -DE/DX =   -0.0002              !
 ! D27   D(1,5,12,13)         -142.6252         -DE/DX =    0.0005              !
 ! D28   D(4,5,12,13)         -115.9843         -DE/DX =   -0.0014              !
 ! D29   D(8,5,12,13)         -172.1276         -DE/DX =    0.0008              !
 ! D30   D(10,5,12,13)         110.0073         -DE/DX =    0.0                 !
 ! D31   D(14,5,12,13)          -3.2412         -DE/DX =    0.0001              !
 ! D32   D(1,5,14,15)         -117.9489         -DE/DX =    0.0002              !
 ! D33   D(4,5,14,15)         -109.5416         -DE/DX =   -0.0006              !
 ! D34   D(10,5,14,15)           8.891          -DE/DX =   -0.0001              !
 ! D35   D(12,5,14,15)         129.7158         -DE/DX =   -0.0002              !
 --------------------------------------------------------------------------------
 GradGradGradGradGradGradGradGradGradGradGradGradGradGradGradGradGradGrad

                          Input orientation:                          
 ---------------------------------------------------------------------
 Center     Atomic      Atomic             Coordinates (Angstroms)
 Number     Number       Type             X           Y           Z
 ---------------------------------------------------------------------
      1         14           0       -1.925513   -0.051621   -0.136943
      2          8           0       -2.772701    1.329312   -0.404965
      3          8           0       -2.994925   -1.301184   -0.085882
      4          8           0       -0.629597   -0.364034   -1.078711
      5         40           0        1.005353   -0.013434    0.161000
      6          1           0       -3.554099    1.245114   -0.961273
      7          1           0       -2.634167   -2.146624   -0.376597
      8          8           0       -1.141610    0.205431    1.342040
      9          1           0       -1.239277    1.083969    1.734764
     10          8           0        1.356132   -1.499607    1.405503
     11          1           0        1.059391   -1.658304    2.307437
     12          8           0        1.078534    1.801066    0.972618
     13          1           0        1.762733    2.459638    0.806162
     14          8           0        2.527911   -0.036611   -1.057806
     15          1           0        3.318865   -0.475823   -1.377157
 ---------------------------------------------------------------------
                    Distance matrix (angstroms):
                    1          2          3          4          5
     1  Si   0.000000
     2  O    1.642115   0.000000
     3  O    1.645496   2.659080   0.000000
     4  O    1.632154   2.813228   2.731069   0.000000
     5  Zr   2.946219   4.049319   4.209689   2.081553   0.000000
     6  H    2.239048   0.962886   2.750022   3.340039   4.861280
     7  H    2.224559   3.478811   0.964070   2.772885   4.252719
     8  O    1.693509   2.641136   2.782737   2.538992   2.460124
     9  H    2.294291   2.643865   3.476493   3.222431   2.952862
    10  O    3.904484   5.322391   4.603835   3.376975   1.969910
    11  H    4.179243   5.564882   4.721545   3.999226   2.704757
    12  O    3.699713   4.117317   5.228522   3.437051   1.989092
    13  H    4.560596   4.828523   6.129832   4.153205   2.665698
    14  O    4.547659   5.512571   5.748522   3.174508   1.950437
    15  H    5.405699   6.427352   6.497119   3.961303   2.816393
                    6          7          8          9         10
     6  H    0.000000
     7  H    3.562584   0.000000
     8  O    3.493752   3.273164   0.000000
     9  H    3.557103   4.103693   0.967265   0.000000
    10  O    6.102908   4.417805   3.024879   3.676877   0.000000
    11  H    6.355989   4.591826   3.041365   3.623795   0.962666
    12  O    5.050773   5.584692   2.758906   2.543097   3.340493
    13  H    5.733027   6.476828   3.715350   3.430282   4.024942
    14  O    6.216348   5.618119   4.391268   4.821395   3.095370
    15  H    7.097339   6.263489   5.268205   5.735300   3.555791
                   11         12         13         14         15
    11  H    0.000000
    12  O    3.708012   0.000000
    13  H    4.439140   0.964134   0.000000
    14  O    4.013888   3.098446   3.207979   0.000000
    15  H    4.481040   3.965445   3.975596   0.959428   0.000000
 Stoichiometry    H6O7SiZr
 Framework group  C1[X(H6O7SiZr)]
 Deg. of freedom    39
 Full point group                 C1      NOp   1
 Largest Abelian subgroup         C1      NOp   1
 Largest concise Abelian subgroup C1      NOp   1
                         Standard orientation:                         
 ---------------------------------------------------------------------
 Center     Atomic      Atomic             Coordinates (Angstroms)
 Number     Number       Type             X           Y           Z
 ---------------------------------------------------------------------
      1         14           0       -1.865463   -0.037811   -0.143642
      2          8           0       -2.718860    1.353454   -0.324305
      3          8           0       -2.937991   -1.281894   -0.045675
      4          8           0       -0.639104   -0.337684   -1.178071
      5         40           0        1.079099   -0.023138   -0.045947
      6          1           0       -3.536970    1.285696   -0.827549
      7          1           0       -2.604077   -2.123050   -0.377921
      8          8           0       -0.980669    0.183099    1.283351
      9          1           0       -1.044914    1.053633    1.700056
     10          8           0        1.503080   -1.537500    1.140430
     11          1           0        1.267389   -1.713624    2.057030
     12          8           0        1.220695    1.773210    0.796413
     13          1           0        1.896736    2.431159    0.597354
     14          8           0        2.514784   -0.029275   -1.366166
     15          1           0        3.278892   -0.466213   -1.747906
 ---------------------------------------------------------------------
 Rotational constants (GHZ):           1.7678744           0.6311589           0.6015943

 **********************************************************************

            Population analysis using the SCF Density.

 **********************************************************************

 Orbital symmetries:
       Occupied  (A) (A) (A) (A) (A) (A) (A) (A) (A) (A) (A) (A)
                 (A) (A) (A) (A) (A) (A) (A) (A) (A) (A) (A) (A)
                 (A) (A) (A) (A) (A) (A) (A) (A) (A) (A) (A) (A)
                 (A) (A) (A) (A) (A) (A) (A) (A)
       Virtual   (A) (A) (A) (A) (A) (A) (A) (A) (A) (A) (A) (A)
                 (A) (A) (A) (A) (A) (A) (A) (A) (A) (A) (A) (A)
                 (A) (A) (A) (A) (A) (A) (A) (A) (A) (A) (A) (A)
                 (A) (A) (A) (A) (A) (A) (A) (A) (A) (A) (A) (A)
                 (A) (A) (A) (A) (A) (A) (A) (A) (A) (A) (A) (A)
                 (A) (A) (A) (A) (A) (A) (A) (A) (A) (A) (A) (A)
                 (A) (A) (A) (A) (A) (A) (A) (A) (A) (A) (A) (A)
                 (A) (A) (A) (A) (A) (A) (A) (A) (A) (A) (A) (A)
                 (A) (A) (A) (A) (A) (A) (A) (A) (A) (A) (A) (A)
                 (A) (A) (A) (A) (A) (A) (A) (A) (A) (A) (A) (A)
                 (A) (A) (A) (A)
 The electronic state is 1-A.
 Alpha  occ. eigenvalues --  -66.19925 -19.17448 -19.15488 -19.15444 -19.13480
 Alpha  occ. eigenvalues --  -19.13110 -19.13002 -19.12318  -5.34306  -3.70316
 Alpha  occ. eigenvalues --   -3.70229  -3.70149  -2.05789  -1.26543  -1.26352
 Alpha  occ. eigenvalues --   -1.25865  -1.04039  -1.01211  -1.00103  -0.95146
 Alpha  occ. eigenvalues --   -0.94479  -0.93937  -0.92967  -0.58368  -0.53848
 Alpha  occ. eigenvalues --   -0.52393  -0.48433  -0.47120  -0.46474  -0.43162
 Alpha  occ. eigenvalues --   -0.40331  -0.39872  -0.38086  -0.36102  -0.34756
 Alpha  occ. eigenvalues --   -0.34162  -0.33878  -0.33453  -0.32574  -0.31523
 Alpha  occ. eigenvalues --   -0.30747  -0.30319  -0.30199  -0.29624
 Alpha virt. eigenvalues --   -0.01739  -0.01265  -0.00309   0.00655   0.01650
 Alpha virt. eigenvalues --    0.02120   0.02835   0.03178   0.05318   0.08269
 Alpha virt. eigenvalues --    0.09442   0.12791   0.14329   0.15115   0.16170
 Alpha virt. eigenvalues --    0.16865   0.18052   0.18907   0.19430   0.23262
 Alpha virt. eigenvalues --    0.23914   0.24636   0.25115   0.26499   0.28924
 Alpha virt. eigenvalues --    0.30900   0.31666   0.33231   0.37946   0.39025
 Alpha virt. eigenvalues --    0.41314   0.55644   0.62424   0.73994   0.78847
 Alpha virt. eigenvalues --    0.80322   0.84082   0.86310   0.87572   0.89849
 Alpha virt. eigenvalues --    0.90516   0.91119   0.92698   0.94312   0.95429
 Alpha virt. eigenvalues --    0.96524   0.98112   1.00136   1.02538   1.03495
 Alpha virt. eigenvalues --    1.07364   1.07878   1.08771   1.10560   1.12474
 Alpha virt. eigenvalues --    1.13285   1.14921   1.18688   1.19650   1.21484
 Alpha virt. eigenvalues --    1.23890   1.26241   1.30734   1.40282   1.47563
 Alpha virt. eigenvalues --    1.48401   1.49408   1.52027   1.52964   1.56225
 Alpha virt. eigenvalues --    1.57724   1.58192   1.59563   1.61237   1.62962
 Alpha virt. eigenvalues --    1.63269   1.64599   1.68424   1.69585   1.70827
 Alpha virt. eigenvalues --    1.73300   1.75024   1.79780   1.80826   1.81891
 Alpha virt. eigenvalues --    1.83050   1.83657   1.85084   1.86666   1.87992
 Alpha virt. eigenvalues --    1.90943   1.92781   2.00302   2.08766   2.13549
 Alpha virt. eigenvalues --    2.34780   2.35522   2.36337   2.37584   2.38397
 Alpha virt. eigenvalues --    2.40267   2.42958   2.55606   2.58820   2.61479
 Alpha virt. eigenvalues --    2.62934   2.63915   2.64361   2.64416   2.64830
 Alpha virt. eigenvalues --    2.65161   2.65309   2.66253   2.66553   2.71705
 Alpha virt. eigenvalues --    2.77182   2.81577   3.40685   3.42135   3.42428
 Alpha virt. eigenvalues --    3.43944   3.45878   3.46482   4.50291
          Condensed to atoms (all electrons):
               1          2          3          4          5          6
     1  Si  11.583062   0.385670   0.393364   0.342382  -0.105856  -0.022388
     2  O    0.385670   7.953228  -0.019796  -0.010848   0.006385   0.304618
     3  O    0.393364  -0.019796   7.943784  -0.017082   0.001175  -0.001029
     4  O    0.342382  -0.010848  -0.017082   8.254219   0.198487  -0.000334
     5  Zr  -0.105856   0.006385   0.001175   0.198487   9.801797  -0.000884
     6  H   -0.022388   0.304618  -0.001029  -0.000334  -0.000884   0.379211
     7  H   -0.017140   0.000351   0.301628   0.001155  -0.003285  -0.000049
     8  O    0.254427  -0.019231  -0.012879  -0.035975   0.091293   0.000663
     9  H   -0.008586   0.001196  -0.000199   0.000444  -0.011543   0.000005
    10  O   -0.008282  -0.000000  -0.000000   0.000066   0.228163  -0.000000
    11  H    0.000123  -0.000000  -0.000000  -0.000070  -0.017336   0.000000
    12  O   -0.009839  -0.000005  -0.000000   0.000191   0.228957   0.000000
    13  H    0.000535  -0.000002   0.000000  -0.000015  -0.017678  -0.000000
    14  O   -0.001184   0.000000  -0.000000   0.000499   0.210404   0.000000
    15  H    0.000027  -0.000000  -0.000000  -0.000069  -0.014102  -0.000000
               7          8          9         10         11         12
     1  Si  -0.017140   0.254427  -0.008586  -0.008282   0.000123  -0.009839
     2  O    0.000351  -0.019231   0.001196  -0.000000  -0.000000  -0.000005
     3  O    0.301628  -0.012879  -0.000199  -0.000000  -0.000000  -0.000000
     4  O    0.001155  -0.035975   0.000444   0.000066  -0.000070   0.000191
     5  Zr  -0.003285   0.091293  -0.011543   0.228163  -0.017336   0.228957
     6  H   -0.000049   0.000663   0.000005  -0.000000   0.000000   0.000000
     7  H    0.381639  -0.000082   0.000051  -0.000002  -0.000001  -0.000000
     8  O   -0.000082   8.092460   0.296449  -0.004498  -0.000907  -0.009740
     9  H    0.000051   0.296449   0.348802  -0.000242  -0.000039   0.003189
    10  O   -0.000002  -0.004498  -0.000242   8.175577   0.294500   0.000687
    11  H   -0.000001  -0.000907  -0.000039   0.294500   0.393847  -0.000298
    12  O   -0.000000  -0.009740   0.003189   0.000687  -0.000298   8.198902
    13  H    0.000000   0.000371  -0.000089  -0.000058  -0.000000   0.291752
    14  O   -0.000000  -0.000114   0.000011   0.000853   0.000019   0.000330
    15  H    0.000000   0.000000  -0.000000  -0.000351   0.000000  -0.000093
              13         14         15
     1  Si   0.000535  -0.001184   0.000027
     2  O   -0.000002   0.000000  -0.000000
     3  O    0.000000  -0.000000  -0.000000
     4  O   -0.000015   0.000499  -0.000069
     5  Zr  -0.017678   0.210404  -0.014102
     6  H   -0.000000   0.000000  -0.000000
     7  H    0.000000  -0.000000   0.000000
     8  O    0.000371  -0.000114   0.000000
     9  H   -0.000089   0.000011  -0.000000
    10  O   -0.000058   0.000853  -0.000351
    11  H   -0.000000   0.000019   0.000000
    12  O    0.291752   0.000330  -0.000093
    13  H    0.397644  -0.001760   0.000003
    14  O   -0.001760   8.180291   0.300207
    15  H    0.000003   0.300207   0.382201
 Mulliken charges:
               1
     1  Si   1.213685
     2  O   -0.601565
     3  O   -0.588967
     4  O   -0.733049
     5  Zr   1.404024
     6  H    0.340187
     7  H    0.335734
     8  O   -0.652237
     9  H    0.370553
    10  O   -0.686412
    11  H    0.330162
    12  O   -0.704034
    13  H    0.329298
    14  O   -0.689557
    15  H    0.332178
 Sum of Mulliken charges =  -0.00000
 Mulliken charges with hydrogens summed into heavy atoms:
               1
     1  Si   1.213685
     2  O   -0.261378
     3  O   -0.253233
     4  O   -0.733049
     5  Zr   1.404024
     8  O   -0.281684
    10  O   -0.356250
    12  O   -0.374736
    14  O   -0.357379
 Electronic spatial extent (au):  <R**2>=           1851.2563
 Charge=              0.0000 electrons
 Dipole moment (field-independent basis, Debye):
    X=              0.1053    Y=             -0.0231    Z=              0.4226  Tot=              0.4361
 Quadrupole moment (field-independent basis, Debye-Ang):
   XX=            -64.8363   YY=            -69.9355   ZZ=            -71.7431
   XY=              1.3667   XZ=              1.3109   YZ=              1.1207
 Traceless Quadrupole moment (field-independent basis, Debye-Ang):
   XX=              4.0020   YY=             -1.0972   ZZ=             -2.9048
   XY=              1.3667   XZ=              1.3109   YZ=              1.1207
 Octapole moment (field-independent basis, Debye-Ang**2):
  XXX=             36.3791  YYY=             -4.0279  ZZZ=             15.6731  XYY=              6.7365
  XXY=             13.8689  XXZ=            -31.7498  XZZ=             11.9922  YZZ=             -5.4825
  YYZ=             -0.6210  XYZ=              2.9922
 Hexadecapole moment (field-independent basis, Debye-Ang**3):
 XXXX=          -1292.4839 YYYY=           -381.1886 ZZZZ=           -316.5070 XXXY=            -64.1681
 XXXZ=             10.3680 YYYX=             75.1422 YYYZ=              6.5340 ZZZX=             -5.5101
 ZZZY=            -12.9289 XXYY=           -277.2256 XXZZ=           -255.8485 YYZZ=           -111.4038
 XXYZ=             19.6395 YYXZ=              9.6840 ZZXY=            -32.0281
 N-N= 6.676450107646D+02 E-N=-3.371506664644D+03  KE= 8.297777703798D+02
 1\1\GINC-GRA599\FOpt\RB3LYP\Gen\H6O7Si1Zr1\SARASHS\24-Jun-2020\0\\#n B
 3LYP/GEN PSEUDO=READ Opt(modredundant)\\Title\\0,1\Si,-1.9255129926,-0
 .0516209911,-0.1369432179\O,-2.7727013537,1.3293124951,-0.4049652411\O
 ,-2.9949251357,-1.3011836505,-0.0858816203\O,-0.6295969845,-0.36403414
 42,-1.0787105093\Zr,1.0053533055,-0.0134338146,0.1609997119\H,-3.55409
 88822,1.2451143031,-0.9612734263\H,-2.6341673336,-2.146623694,-0.37659
 68036\O,-1.1416099008,0.2054307177,1.3420404865\H,-1.2392772424,1.0839
 69336,1.7347640543\O,1.3561319234,-1.4996068424,1.405502763\H,1.059390
 7803,-1.6583039611,2.30743702\O,1.078533972,1.8010659988,0.9726177371\
 H,1.7627334603,2.4596381976,0.8061619604\O,2.5279112715,-0.0366106177,
 -1.0578056367\H,3.3188651126,-0.4758233326,-1.3771572781\\Version=ES64
 L-G16RevB.01\State=1-A\HF=-866.6878114\RMSD=7.090e-09\RMSF=2.516e-03\D
 ipole=0.0300312,-0.0053237,0.1688506\Quadrupole=2.8071926,-0.7662812,-
 2.0409114,1.0056563,1.2891617,0.8820848\PG=C01 [X(H6O7Si1Zr1)]\\@


 ASKING DUMB QUESTIONS IS EASIER THAN CORECTING DUMB MISTAKES.
 Job cpu time:       0 days  0 hours 36 minutes  7.1 seconds.
 Elapsed time:       0 days  0 hours  2 minutes 19.7 seconds.
 File lengths (MBytes):  RWF=     23 Int=      0 D2E=      0 Chk=      3 Scr=      1
 Normal termination of Gaussian 16 at Wed Jun 24 13:57:44 2020.
