 Entering Gaussian System, Link 0=g16
 Initial command:
 /opt/software/gaussian/g16.b01/l1.exe "/localscratch/sarashs.33453166.0/Gau-10873.inp" -scrdir="/localscratch/sarashs.33453166.0/"
 Entering Link 1 = /opt/software/gaussian/g16.b01/l1.exe PID=     10874.
  
 Copyright (c) 1988-2017, Gaussian, Inc.  All Rights Reserved.
  
 This is part of the Gaussian(R) 16 program.  It is based on
 the Gaussian(R) 09 system (copyright 2009, Gaussian, Inc.),
 the Gaussian(R) 03 system (copyright 2003, Gaussian, Inc.),
 the Gaussian(R) 98 system (copyright 1998, Gaussian, Inc.),
 the Gaussian(R) 94 system (copyright 1995, Gaussian, Inc.),
 the Gaussian 92(TM) system (copyright 1992, Gaussian, Inc.),
 the Gaussian 90(TM) system (copyright 1990, Gaussian, Inc.),
 the Gaussian 88(TM) system (copyright 1988, Gaussian, Inc.),
 the Gaussian 86(TM) system (copyright 1986, Carnegie Mellon
 University), and the Gaussian 82(TM) system (copyright 1983,
 Carnegie Mellon University). Gaussian is a federally registered
 trademark of Gaussian, Inc.
  
 This software contains proprietary and confidential information,
 including trade secrets, belonging to Gaussian, Inc.
  
 This software is provided under written license and may be
 used, copied, transmitted, or stored only in accord with that
 written license.
  
 The following legend is applicable only to US Government
 contracts under FAR:
  
                    RESTRICTED RIGHTS LEGEND
  
 Use, reproduction and disclosure by the US Government is
 subject to restrictions as set forth in subparagraphs (a)
 and (c) of the Commercial Computer Software - Restricted
 Rights clause in FAR 52.227-19.
  
 Gaussian, Inc.
 340 Quinnipiac St., Bldg. 40, Wallingford CT 06492
  
  
 ---------------------------------------------------------------
 Warning -- This program may not be used in any manner that
 competes with the business of Gaussian, Inc. or will provide
 assistance to any competitor of Gaussian, Inc.  The licensee
 of this program is prohibited from giving any competitor of
 Gaussian, Inc. access to this program.  By using this program,
 the user acknowledges that Gaussian, Inc. is engaged in the
 business of creating and licensing software in the field of
 computational chemistry and represents and warrants to the
 licensee that it is not a competitor of Gaussian, Inc. and that
 it will not use this program in any manner prohibited above.
 ---------------------------------------------------------------
  

 Cite this work as:
 Gaussian 16, Revision B.01,
 M. J. Frisch, G. W. Trucks, H. B. Schlegel, G. E. Scuseria, 
 M. A. Robb, J. R. Cheeseman, G. Scalmani, V. Barone, 
 G. A. Petersson, H. Nakatsuji, X. Li, M. Caricato, A. V. Marenich, 
 J. Bloino, B. G. Janesko, R. Gomperts, B. Mennucci, H. P. Hratchian, 
 J. V. Ortiz, A. F. Izmaylov, J. L. Sonnenberg, D. Williams-Young, 
 F. Ding, F. Lipparini, F. Egidi, J. Goings, B. Peng, A. Petrone, 
 T. Henderson, D. Ranasinghe, V. G. Zakrzewski, J. Gao, N. Rega, 
 G. Zheng, W. Liang, M. Hada, M. Ehara, K. Toyota, R. Fukuda, 
 J. Hasegawa, M. Ishida, T. Nakajima, Y. Honda, O. Kitao, H. Nakai, 
 T. Vreven, K. Throssell, J. A. Montgomery, Jr., J. E. Peralta, 
 F. Ogliaro, M. J. Bearpark, J. J. Heyd, E. N. Brothers, K. N. Kudin, 
 V. N. Staroverov, T. A. Keith, R. Kobayashi, J. Normand, 
 K. Raghavachari, A. P. Rendell, J. C. Burant, S. S. Iyengar, 
 J. Tomasi, M. Cossi, J. M. Millam, M. Klene, C. Adamo, R. Cammi, 
 J. W. Ochterski, R. L. Martin, K. Morokuma, O. Farkas, 
 J. B. Foresman, and D. J. Fox, Gaussian, Inc., Wallingford CT, 2016.
 
 ******************************************
 Gaussian 16:  ES64L-G16RevB.01 20-Dec-2017
                24-Jun-2020 
 ******************************************
 %NProcShared=16
 Will use up to   16 processors via shared memory.
 ------------------------------------------
 #n B3LYP/GEN PSEUDO=READ Opt(modredundant)
 ------------------------------------------
 1/18=120,19=15,26=3,38=1/1,3;
 2/9=110,12=2,17=6,18=5,40=1/2;
 3/5=7,11=2,16=1,17=8,25=1,30=1,71=1,74=-5/1,2,3;
 4//1;
 5/5=2,38=5/2;
 6/7=2,8=2,9=2,10=2,28=1/1;
 7//1,2,3,16;
 1/18=20,19=15,26=3/3(2);
 2/9=110/2;
 99//99;
 2/9=110/2;
 3/5=7,6=1,11=2,16=1,17=8,25=1,30=1,71=1,74=-5,82=7/1,2,3;
 4/5=5,16=3,69=1/1;
 5/5=2,38=5/2;
 7//1,2,3,16;
 1/18=20,19=15,26=3/3(-5);
 2/9=110/2;
 6/7=2,8=2,9=2,10=2,19=2,28=1/1;
 99/9=1/99;
 -----
 Title
 -----
 Symbolic Z-matrix:
 Charge =  0 Multiplicity = 1
 Si                   -1.90698  -0.04093  -0.13187 
 O                    -2.77661   1.33183  -0.36828 
 O                    -2.96472  -1.30138  -0.09409 
 O                    -0.62539  -0.3216   -1.09659 
 Zr                    1.08161  -0.01253  -0.00304 
 H                    -3.57833   1.23701  -0.89318 
 H                    -2.59505  -2.1428   -0.38501 
 O                    -1.07346   0.19403   1.32035 
 H                    -1.20745   1.04108   1.76425 
 O                     1.46725  -1.47641   1.2555 
 H                     1.19539  -1.63853   2.16444 
 O                     1.20206   1.7986    0.79428 
 H                     1.86212   2.47633   0.61052 
 O                     2.53793  -0.08964  -1.30501 
 H                     3.3238   -0.59282  -1.53298 
 
 The following ModRedundant input section has been read:
 A       1       4       5 F                                                   
 

 GradGradGradGradGradGradGradGradGradGradGradGradGradGradGradGradGradGrad
 Berny optimization.
 Initialization pass.
                           ----------------------------
                           !    Initial Parameters    !
                           ! (Angstroms and Degrees)  !
 --------------------------                            --------------------------
 ! Name  Definition              Value          Derivative Info.                !
 --------------------------------------------------------------------------------
 ! R1    R(1,2)                  1.6421         estimate D2E/DX2                !
 ! R2    R(1,3)                  1.6459         estimate D2E/DX2                !
 ! R3    R(1,4)                  1.6285         estimate D2E/DX2                !
 ! R4    R(1,5)                  2.9915         estimate D2E/DX2                !
 ! R5    R(1,8)                  1.6908         estimate D2E/DX2                !
 ! R6    R(2,6)                  0.9629         estimate D2E/DX2                !
 ! R7    R(3,7)                  0.964          estimate D2E/DX2                !
 ! R8    R(4,5)                  2.0507         estimate D2E/DX2                !
 ! R9    R(5,10)                 1.9687         estimate D2E/DX2                !
 ! R10   R(5,12)                 1.9825         estimate D2E/DX2                !
 ! R11   R(5,14)                 1.955          estimate D2E/DX2                !
 ! R12   R(8,9)                  0.9657         estimate D2E/DX2                !
 ! R13   R(10,11)                0.9625         estimate D2E/DX2                !
 ! R14   R(12,13)                0.9637         estimate D2E/DX2                !
 ! R15   R(14,15)                0.9606         estimate D2E/DX2                !
 ! A1    A(2,1,3)              107.6477         estimate D2E/DX2                !
 ! A2    A(2,1,4)              118.3958         estimate D2E/DX2                !
 ! A3    A(2,1,5)              121.8246         estimate D2E/DX2                !
 ! A4    A(2,1,8)              105.5776         estimate D2E/DX2                !
 ! A5    A(3,1,4)              112.7909         estimate D2E/DX2                !
 ! A6    A(3,1,5)              130.4143         estimate D2E/DX2                !
 ! A7    A(3,1,8)              113.7977         estimate D2E/DX2                !
 ! A8    A(4,1,8)               98.3257         estimate D2E/DX2                !
 ! A9    A(5,1,8)               57.941          estimate D2E/DX2                !
 ! A10   A(1,2,6)              115.9167         estimate D2E/DX2                !
 ! A11   A(1,3,7)              114.5237         estimate D2E/DX2                !
 ! A12   A(1,4,5)              108.2529         Frozen                          !
 ! A13   A(1,5,10)             102.4843         estimate D2E/DX2                !
 ! A14   A(1,5,12)              94.9732         estimate D2E/DX2                !
 ! A15   A(1,5,14)             135.6554         estimate D2E/DX2                !
 ! A16   A(4,5,10)             113.0729         estimate D2E/DX2                !
 ! A17   A(4,5,12)             113.7487         estimate D2E/DX2                !
 ! A18   A(4,5,14)             105.0108         estimate D2E/DX2                !
 ! A19   A(10,5,12)            114.2238         estimate D2E/DX2                !
 ! A20   A(10,5,14)            104.507          estimate D2E/DX2                !
 ! A21   A(12,5,14)            104.9877         estimate D2E/DX2                !
 ! A22   A(1,8,9)              116.6352         estimate D2E/DX2                !
 ! A23   A(5,10,11)            132.3495         estimate D2E/DX2                !
 ! A24   A(5,12,13)            127.3995         estimate D2E/DX2                !
 ! A25   A(5,14,15)            142.012          estimate D2E/DX2                !
 ! D1    D(3,1,2,6)            -31.5445         estimate D2E/DX2                !
 ! D2    D(4,1,2,6)             97.8074         estimate D2E/DX2                !
 ! D3    D(5,1,2,6)            144.9592         estimate D2E/DX2                !
 ! D4    D(8,1,2,6)           -153.4334         estimate D2E/DX2                !
 ! D5    D(2,1,3,7)            151.7162         estimate D2E/DX2                !
 ! D6    D(4,1,3,7)             19.2636         estimate D2E/DX2                !
 ! D7    D(5,1,3,7)            -24.3815         estimate D2E/DX2                !
 ! D8    D(8,1,3,7)            -91.6497         estimate D2E/DX2                !
 ! D9    D(2,1,5,10)           147.9839         estimate D2E/DX2                !
 ! D10   D(2,1,5,12)            31.8103         estimate D2E/DX2                !
 ! D11   D(2,1,5,14)           -85.6038         estimate D2E/DX2                !
 ! D12   D(3,1,5,10)           -36.3936         estimate D2E/DX2                !
 ! D13   D(3,1,5,12)          -152.5672         estimate D2E/DX2                !
 ! D14   D(3,1,5,14)            90.0187         estimate D2E/DX2                !
 ! D15   D(8,1,5,10)            58.8874         estimate D2E/DX2                !
 ! D16   D(8,1,5,12)           -57.2861         estimate D2E/DX2                !
 ! D17   D(8,1,5,14)          -174.7003         estimate D2E/DX2                !
 ! D18   D(2,1,8,9)             -0.7356         estimate D2E/DX2                !
 ! D19   D(3,1,8,9)           -118.5698         estimate D2E/DX2                !
 ! D20   D(4,1,8,9)            121.931          estimate D2E/DX2                !
 ! D21   D(5,1,8,9)            117.385          estimate D2E/DX2                !
 ! D22   D(1,5,10,11)          -57.4025         estimate D2E/DX2                !
 ! D23   D(4,5,10,11)          -88.2377         estimate D2E/DX2                !
 ! D24   D(12,5,10,11)          43.9577         estimate D2E/DX2                !
 ! D25   D(14,5,10,11)         158.1208         estimate D2E/DX2                !
 ! D26   D(1,5,12,13)         -142.7586         estimate D2E/DX2                !
 ! D27   D(4,5,12,13)         -116.9744         estimate D2E/DX2                !
 ! D28   D(10,5,12,13)         111.1548         estimate D2E/DX2                !
 ! D29   D(14,5,12,13)          -2.7244         estimate D2E/DX2                !
 ! D30   D(1,5,14,15)         -123.6639         estimate D2E/DX2                !
 ! D31   D(4,5,14,15)         -117.1595         estimate D2E/DX2                !
 ! D32   D(10,5,14,15)           2.0821         estimate D2E/DX2                !
 ! D33   D(12,5,14,15)         122.6136         estimate D2E/DX2                !
 --------------------------------------------------------------------------------
 Trust Radius=3.00D-01 FncErr=1.00D-07 GrdErr=1.00D-06 EigMax=2.50D+02 EigMin=1.00D-04
 Number of steps in this run=     83 maximum allowed number of steps=    100.
 GradGradGradGradGradGradGradGradGradGradGradGradGradGradGradGradGradGrad

                          Input orientation:                          
 ---------------------------------------------------------------------
 Center     Atomic      Atomic             Coordinates (Angstroms)
 Number     Number       Type             X           Y           Z
 ---------------------------------------------------------------------
      1         14           0       -1.906980   -0.040930   -0.131870
      2          8           0       -2.776610    1.331830   -0.368280
      3          8           0       -2.964720   -1.301380   -0.094090
      4          8           0       -0.625390   -0.321600   -1.096590
      5         40           0        1.081610   -0.012530   -0.003040
      6          1           0       -3.578330    1.237010   -0.893180
      7          1           0       -2.595050   -2.142800   -0.385010
      8          8           0       -1.073460    0.194030    1.320350
      9          1           0       -1.207450    1.041080    1.764250
     10          8           0        1.467250   -1.476410    1.255500
     11          1           0        1.195390   -1.638530    2.164440
     12          8           0        1.202060    1.798600    0.794280
     13          1           0        1.862120    2.476330    0.610520
     14          8           0        2.537930   -0.089640   -1.305010
     15          1           0        3.323800   -0.592820   -1.532980
 ---------------------------------------------------------------------
                    Distance matrix (angstroms):
                    1          2          3          4          5
     1  Si   0.000000
     2  O    1.642138   0.000000
     3  O    1.645897   2.654121   0.000000
     4  O    1.628476   2.809273   2.727167   0.000000
     5  Zr   2.991500   4.102020   4.247612   2.050664   0.000000
     6  H    2.237439   0.962946   2.731023   3.345220   4.905990
     7  H    2.226068   3.479411   0.963991   2.775370   4.266354
     8  O    1.690830   2.654577   2.795310   2.511621   2.537391
     9  H    2.292457   2.663547   3.468219   3.221816   3.077857
    10  O    3.920565   5.341650   4.636204   3.353365   1.968651
    11  H    4.177327   5.569066   4.745645   3.960285   2.711972
    12  O    3.729310   4.171239   5.268883   3.377900   1.982529
    13  H    4.592805   4.877063   6.169761   4.114650   2.679566
    14  O    4.597375   5.580535   5.763141   3.178653   1.954978
    15  H    5.443230   6.501985   6.489834   3.982474   2.775765
                    6          7          8          9         10
     6  H    0.000000
     7  H    3.556430   0.000000
     8  O    3.501699   3.268679   0.000000
     9  H    3.566706   4.084341   0.965657   0.000000
    10  O    6.118607   4.431437   3.041346   3.708180   0.000000
    11  H    6.356585   4.595804   3.036189   3.621340   0.962477
    12  O    5.100493   5.598518   2.833617   2.705627   3.317942
    13  H    5.778886   6.495676   3.785549   3.579566   4.024435
    14  O    6.272020   5.604404   4.473826   4.972601   3.102531
    15  H    7.169172   6.225195   5.300615   5.837258   3.464553
                   11         12         13         14         15
    11  H    0.000000
    12  O    3.700168   0.000000
    13  H    4.448738   0.963724   0.000000
    14  O    4.029709   3.123622   3.272641   0.000000
    15  H    4.392557   3.954341   4.018804   0.960600   0.000000
 Stoichiometry    H6O7SiZr
 Framework group  C1[X(H6O7SiZr)]
 Deg. of freedom    39
 Full point group                 C1      NOp   1
 Largest Abelian subgroup         C1      NOp   1
 Largest concise Abelian subgroup C1      NOp   1
                         Standard orientation:                         
 ---------------------------------------------------------------------
 Center     Atomic      Atomic             Coordinates (Angstroms)
 Number     Number       Type             X           Y           Z
 ---------------------------------------------------------------------
      1         14           0       -1.889621   -0.040560   -0.135053
      2          8           0       -2.760393    1.334298   -0.354454
      3          8           0       -2.948905   -1.299230   -0.083614
      4          8           0       -0.623898   -0.321163   -1.120518
      5         40           0        1.100674   -0.017744   -0.053272
      6          1           0       -3.570453    1.242160   -0.866879
      7          1           0       -2.585381   -2.140596   -0.382329
      8          8           0       -1.032902    0.189424    1.304406
      9          1           0       -1.158355    1.035636    1.752381
     10          8           0        1.503456   -1.485335    1.195539
     11          1           0        1.245659   -1.649167    2.108262
     12          8           0        1.236935    1.791241    0.746367
     13          1           0        1.895238    2.468247    0.553844
     14          8           0        2.536158   -0.094282   -1.378213
     15          1           0        3.317431   -0.598296   -1.619739
 ---------------------------------------------------------------------
 Rotational constants (GHZ):           1.7746936           0.6186149           0.5916203
 General basis read from cards:  (5D, 7F)
 ======================================================================================================
                                       Pseudopotential Parameters
 ======================================================================================================
  Center     Atomic      Valence      Angular      Power
  Number     Number     Electrons     Momentum     of R      Exponent        Coefficient   SO-Coeffient
 ======================================================================================================
    1         14
                                   No pseudopotential on this center.
    2          8
                                   No pseudopotential on this center.
    3          8
                                   No pseudopotential on this center.
    4          8
                                   No pseudopotential on this center.
    5         40           12
                                      F and up 
                                                     0      645.9321873       -0.04258430    0.00000000
                                                     1      134.7547401      -20.22224090    0.00000000
                                                     2       42.3074619     -101.86951720    0.00000000
                                                     2       12.0003227      -41.61957840    0.00000000
                                                     2        4.1260454       -4.69861600    0.00000000
                                      S - F
                                                     0      117.6251862        2.79105590    0.00000000
                                                     1       22.9646089       41.94894590    0.00000000
                                                     2        4.5225298       67.72718660    0.00000000
                                      P - F
                                                     0       47.1953145        4.99111440    0.00000000
                                                     1       48.0356033       20.71931720    0.00000000
                                                     2       19.4541456      195.58677580    0.00000000
                                                     2        4.0512875       48.28771760    0.00000000
                                      D - F
                                                     0       79.9073983        3.00492260    0.00000000
                                                     1       45.8263798       25.93779890    0.00000000
                                                     2       26.9903522      125.12449340    0.00000000
                                                     2        9.6835718       70.76340220    0.00000000
                                                     2        2.7995666       15.04928220    0.00000000
    6          1
                                   No pseudopotential on this center.
    7          1
                                   No pseudopotential on this center.
    8          8
                                   No pseudopotential on this center.
    9          1
                                   No pseudopotential on this center.
   10          8
                                   No pseudopotential on this center.
   11          1
                                   No pseudopotential on this center.
   12          8
                                   No pseudopotential on this center.
   13          1
                                   No pseudopotential on this center.
   14          8
                                   No pseudopotential on this center.
   15          1
                                   No pseudopotential on this center.
 ======================================================================================================
 There are   178 symmetry adapted cartesian basis functions of A   symmetry.
 There are   168 symmetry adapted basis functions of A   symmetry.
   168 basis functions,   339 primitive gaussians,   178 cartesian basis functions
    44 alpha electrons       44 beta electrons
       nuclear repulsion energy       665.6229081693 Hartrees.
 NAtoms=   15 NActive=   15 NUniq=   15 SFac= 1.00D+00 NAtFMM=   60 NAOKFM=F Big=F
 Integral buffers will be    131072 words long.
 Raffenetti 2 integral format.
 Two-electron integral symmetry is turned on.
 One-electron integrals computed using PRISM.
   1 Symmetry operations used in ECPInt.
 ECPInt:  NShTT=    1770 NPrTT=   10201 LenC2=    1668 LenP2D=    6754.
 LDataN:  DoStor=T MaxTD1= 5 Len=  102
 NBasis=   168 RedAO= T EigKep=  8.20D-03  NBF=   168
 NBsUse=   168 1.00D-06 EigRej= -1.00D+00 NBFU=   168
 Defaulting to unpruned grid for atomic number  40.
 ExpMin= 2.43D-02 ExpMax= 1.61D+04 ExpMxC= 2.43D+03 IAcc=3 IRadAn=         5 AccDes= 0.00D+00
 Harris functional with IExCor=  402 and IRadAn=       5 diagonalized for initial guess.
 HarFok:  IExCor=  402 AccDes= 0.00D+00 IRadAn=         5 IDoV= 1 UseB2=F ITyADJ=14
 ICtDFT=  3500011 ScaDFX=  1.000000  1.000000  1.000000  1.000000
 Defaulting to unpruned grid for atomic number  40.
 FoFCou: FMM=F IPFlag=           0 FMFlag=      100000 FMFlg1=           0
         NFxFlg=           0 DoJE=T BraDBF=F KetDBF=T FulRan=T
         wScrn=  0.000000 ICntrl=       500 IOpCl=  0 I1Cent=   200000004 NGrid=           0
         NMat0=    1 NMatS0=      1 NMatT0=    0 NMatD0=    1 NMtDS0=    0 NMtDT0=    0
 Petite list used in FoFCou.
 Requested convergence on RMS density matrix=1.00D-08 within 128 cycles.
 Requested convergence on MAX density matrix=1.00D-06.
 Requested convergence on             energy=1.00D-06.
 No special actions if energy rises.
 Defaulting to unpruned grid for atomic number  40.
 Defaulting to unpruned grid for atomic number  40.
 Defaulting to unpruned grid for atomic number  40.
 Defaulting to unpruned grid for atomic number  40.
 Defaulting to unpruned grid for atomic number  40.
 Defaulting to unpruned grid for atomic number  40.
 Defaulting to unpruned grid for atomic number  40.
 Defaulting to unpruned grid for atomic number  40.
 Defaulting to unpruned grid for atomic number  40.
 Defaulting to unpruned grid for atomic number  40.
 Defaulting to unpruned grid for atomic number  40.
 Defaulting to unpruned grid for atomic number  40.
 Defaulting to unpruned grid for atomic number  40.
 Defaulting to unpruned grid for atomic number  40.
 Defaulting to unpruned grid for atomic number  40.
 Defaulting to unpruned grid for atomic number  40.
 SCF Done:  E(RB3LYP) =  -866.688851029     A.U. after   15 cycles
            NFock= 15  Conv=0.22D-08     -V/T= 2.0445

 **********************************************************************

            Population analysis using the SCF Density.

 **********************************************************************

 Orbital symmetries:
       Occupied  (A) (A) (A) (A) (A) (A) (A) (A) (A) (A) (A) (A)
                 (A) (A) (A) (A) (A) (A) (A) (A) (A) (A) (A) (A)
                 (A) (A) (A) (A) (A) (A) (A) (A) (A) (A) (A) (A)
                 (A) (A) (A) (A) (A) (A) (A) (A)
       Virtual   (A) (A) (A) (A) (A) (A) (A) (A) (A) (A) (A) (A)
                 (A) (A) (A) (A) (A) (A) (A) (A) (A) (A) (A) (A)
                 (A) (A) (A) (A) (A) (A) (A) (A) (A) (A) (A) (A)
                 (A) (A) (A) (A) (A) (A) (A) (A) (A) (A) (A) (A)
                 (A) (A) (A) (A) (A) (A) (A) (A) (A) (A) (A) (A)
                 (A) (A) (A) (A) (A) (A) (A) (A) (A) (A) (A) (A)
                 (A) (A) (A) (A) (A) (A) (A) (A) (A) (A) (A) (A)
                 (A) (A) (A) (A) (A) (A) (A) (A) (A) (A) (A) (A)
                 (A) (A) (A) (A) (A) (A) (A) (A) (A) (A) (A) (A)
                 (A) (A) (A) (A) (A) (A) (A) (A) (A) (A) (A) (A)
                 (A) (A) (A) (A)
 The electronic state is 1-A.
 Alpha  occ. eigenvalues --  -66.19870 -19.16916 -19.15494 -19.15428 -19.13379
 Alpha  occ. eigenvalues --  -19.13008 -19.12962 -19.12271  -5.34239  -3.70235
 Alpha  occ. eigenvalues --   -3.70165  -3.70096  -2.05575  -1.26289  -1.26174
 Alpha  occ. eigenvalues --   -1.25787  -1.03752  -1.00984  -1.00072  -0.95108
 Alpha  occ. eigenvalues --   -0.94358  -0.93880  -0.93068  -0.58140  -0.53565
 Alpha  occ. eigenvalues --   -0.52409  -0.48020  -0.47073  -0.46503  -0.43351
 Alpha  occ. eigenvalues --   -0.40057  -0.39579  -0.38002  -0.36147  -0.34835
 Alpha  occ. eigenvalues --   -0.34116  -0.33788  -0.33354  -0.32346  -0.31568
 Alpha  occ. eigenvalues --   -0.30657  -0.30319  -0.30204  -0.29630
 Alpha virt. eigenvalues --   -0.01576  -0.00938  -0.00224   0.00622   0.01596
 Alpha virt. eigenvalues --    0.02225   0.03080   0.03306   0.05242   0.08299
 Alpha virt. eigenvalues --    0.09410   0.12533   0.14387   0.15270   0.16171
 Alpha virt. eigenvalues --    0.17000   0.17928   0.18863   0.19560   0.23452
 Alpha virt. eigenvalues --    0.23798   0.24656   0.25163   0.26453   0.28711
 Alpha virt. eigenvalues --    0.30793   0.31974   0.33369   0.38371   0.38953
 Alpha virt. eigenvalues --    0.41337   0.55919   0.63008   0.73727   0.78864
 Alpha virt. eigenvalues --    0.80295   0.84331   0.86542   0.87377   0.89482
 Alpha virt. eigenvalues --    0.90595   0.91170   0.92631   0.94869   0.95445
 Alpha virt. eigenvalues --    0.96863   0.98108   1.00348   1.02293   1.03774
 Alpha virt. eigenvalues --    1.07446   1.07826   1.09044   1.10143   1.12558
 Alpha virt. eigenvalues --    1.14242   1.15666   1.19089   1.19603   1.21581
 Alpha virt. eigenvalues --    1.24025   1.25478   1.29697   1.38750   1.47524
 Alpha virt. eigenvalues --    1.48527   1.50389   1.51404   1.52894   1.56145
 Alpha virt. eigenvalues --    1.57600   1.58224   1.59731   1.60991   1.63233
 Alpha virt. eigenvalues --    1.63671   1.64762   1.68233   1.69208   1.71023
 Alpha virt. eigenvalues --    1.73185   1.75156   1.80180   1.80502   1.81783
 Alpha virt. eigenvalues --    1.82875   1.83834   1.85521   1.86905   1.88386
 Alpha virt. eigenvalues --    1.91223   1.92432   2.00744   2.08493   2.13477
 Alpha virt. eigenvalues --    2.35164   2.35627   2.36286   2.37831   2.38529
 Alpha virt. eigenvalues --    2.39959   2.43150   2.55834   2.59171   2.61880
 Alpha virt. eigenvalues --    2.62833   2.63807   2.64225   2.64468   2.64898
 Alpha virt. eigenvalues --    2.65247   2.65405   2.66179   2.66454   2.72133
 Alpha virt. eigenvalues --    2.77326   2.81877   3.40796   3.42199   3.42986
 Alpha virt. eigenvalues --    3.43992   3.45894   3.46512   4.39258
          Condensed to atoms (all electrons):
               1          2          3          4          5          6
     1  Si  11.569701   0.387256   0.394235   0.342590  -0.100558  -0.022070
     2  O    0.387256   7.951074  -0.020199  -0.010631   0.005726   0.304371
     3  O    0.394235  -0.020199   7.944112  -0.017008   0.000370  -0.001013
     4  O    0.342590  -0.010631  -0.017008   8.265953   0.192534  -0.000296
     5  Zr  -0.100558   0.005726   0.000370   0.192534   9.794625  -0.000923
     6  H   -0.022070   0.304371  -0.001013  -0.000296  -0.000923   0.379106
     7  H   -0.017532   0.000381   0.301723   0.001217  -0.003164  -0.000045
     8  O    0.259198  -0.018319  -0.012632  -0.038972   0.097116   0.000624
     9  H   -0.009027   0.000989  -0.000234   0.000756  -0.011180   0.000005
    10  O   -0.007440  -0.000000   0.000000   0.000170   0.228008  -0.000000
    11  H    0.000127  -0.000000  -0.000000  -0.000085  -0.017377   0.000000
    12  O   -0.009070  -0.000000  -0.000000   0.000283   0.227452   0.000000
    13  H    0.000471  -0.000002   0.000000  -0.000021  -0.017206  -0.000000
    14  O   -0.000693   0.000000  -0.000000   0.000688   0.210134   0.000000
    15  H    0.000006  -0.000000   0.000000  -0.000059  -0.014376  -0.000000
               7          8          9         10         11         12
     1  Si  -0.017532   0.259198  -0.009027  -0.007440   0.000127  -0.009070
     2  O    0.000381  -0.018319   0.000989  -0.000000  -0.000000  -0.000000
     3  O    0.301723  -0.012632  -0.000234   0.000000  -0.000000  -0.000000
     4  O    0.001217  -0.038972   0.000756   0.000170  -0.000085   0.000283
     5  Zr  -0.003164   0.097116  -0.011180   0.228008  -0.017377   0.227452
     6  H   -0.000045   0.000624   0.000005  -0.000000   0.000000   0.000000
     7  H    0.381919  -0.000186   0.000054  -0.000004  -0.000001  -0.000000
     8  O   -0.000186   8.072904   0.297725  -0.004381  -0.000763  -0.007677
     9  H    0.000054   0.297725   0.356122  -0.000153  -0.000035   0.002020
    10  O   -0.000004  -0.004381  -0.000153   8.175539   0.295159   0.000728
    11  H   -0.000001  -0.000763  -0.000035   0.295159   0.392909  -0.000310
    12  O   -0.000000  -0.007677   0.002020   0.000728  -0.000310   8.194746
    13  H    0.000000   0.000284  -0.000068  -0.000062  -0.000000   0.291527
    14  O   -0.000000  -0.000073   0.000007   0.000861   0.000015   0.000536
    15  H    0.000000  -0.000000  -0.000000  -0.000513   0.000001  -0.000096
              13         14         15
     1  Si   0.000471  -0.000693   0.000006
     2  O   -0.000002   0.000000  -0.000000
     3  O    0.000000  -0.000000   0.000000
     4  O   -0.000021   0.000688  -0.000059
     5  Zr  -0.017206   0.210134  -0.014376
     6  H   -0.000000   0.000000  -0.000000
     7  H    0.000000  -0.000000   0.000000
     8  O    0.000284  -0.000073  -0.000000
     9  H   -0.000068   0.000007  -0.000000
    10  O   -0.000062   0.000861  -0.000513
    11  H   -0.000000   0.000015   0.000001
    12  O    0.291527   0.000536  -0.000096
    13  H    0.398546  -0.001474   0.000001
    14  O   -0.001474   8.182775   0.298506
    15  H    0.000001   0.298506   0.384121
 Mulliken charges:
               1
     1  Si   1.212807
     2  O   -0.600644
     3  O   -0.589354
     4  O   -0.737119
     5  Zr   1.408819
     6  H    0.340240
     7  H    0.335637
     8  O   -0.644846
     9  H    0.363018
    10  O   -0.687912
    11  H    0.330361
    12  O   -0.700140
    13  H    0.328004
    14  O   -0.691281
    15  H    0.332411
 Sum of Mulliken charges =  -0.00000
 Mulliken charges with hydrogens summed into heavy atoms:
               1
     1  Si   1.212807
     2  O   -0.260404
     3  O   -0.253716
     4  O   -0.737119
     5  Zr   1.408819
     8  O   -0.281828
    10  O   -0.357552
    12  O   -0.372137
    14  O   -0.358870
 Electronic spatial extent (au):  <R**2>=           1872.8206
 Charge=             -0.0000 electrons
 Dipole moment (field-independent basis, Debye):
    X=              0.0203    Y=             -0.1340    Z=              0.6364  Tot=              0.6507
 Quadrupole moment (field-independent basis, Debye-Ang):
   XX=            -64.8726   YY=            -69.4224   ZZ=            -72.0401
   XY=              0.9956   XZ=              1.7145   YZ=              1.4073
 Traceless Quadrupole moment (field-independent basis, Debye-Ang):
   XX=              3.9058   YY=             -0.6441   ZZ=             -3.2617
   XY=              0.9956   XZ=              1.7145   YZ=              1.4073
 Octapole moment (field-independent basis, Debye-Ang**2):
  XXX=             37.7995  YYY=             -3.8202  ZZZ=             18.7844  XYY=              8.8953
  XXY=             12.4044  XXZ=            -28.3658  XZZ=              7.2932  YZZ=             -4.5486
  YYZ=             -1.2084  XYZ=              3.3164
 Hexadecapole moment (field-independent basis, Debye-Ang**3):
 XXXX=          -1320.1499 YYYY=           -372.9065 ZZZZ=           -317.8372 XXXY=            -72.8927
 XXXZ=             17.4647 YYYX=             76.5431 YYYZ=              8.5529 ZZZX=              3.3238
 ZZZY=            -12.5451 XXYY=           -281.1279 XXZZ=           -270.3989 YYZZ=           -110.8722
 XXYZ=             21.7604 YYXZ=              5.9682 ZZXY=            -31.9524
 N-N= 6.656229081693D+02 E-N=-3.367571814773D+03  KE= 8.298021215585D+02
   1 Symmetry operations used in ECPInt.
 ECPInt:  NShTT=    1770 NPrTT=   10201 LenC2=    1668 LenP2D=    6754.
 LDataN:  DoStor=T MaxTD1= 6 Len=  172
 Calling FoFJK, ICntrl=      2127 FMM=F ISym2X=0 I1Cent= 0 IOpClX= 0 NMat=1 NMatS=1 NMatT=0.
 Defaulting to unpruned grid for atomic number  40.
 Defaulting to unpruned grid for atomic number  40.
 Defaulting to unpruned grid for atomic number  40.
 Defaulting to unpruned grid for atomic number  40.
 Defaulting to unpruned grid for atomic number  40.
 Defaulting to unpruned grid for atomic number  40.
 Defaulting to unpruned grid for atomic number  40.
 Defaulting to unpruned grid for atomic number  40.
 Defaulting to unpruned grid for atomic number  40.
 Defaulting to unpruned grid for atomic number  40.
 Defaulting to unpruned grid for atomic number  40.
 Defaulting to unpruned grid for atomic number  40.
 Defaulting to unpruned grid for atomic number  40.
 Defaulting to unpruned grid for atomic number  40.
 Defaulting to unpruned grid for atomic number  40.
 Defaulting to unpruned grid for atomic number  40.
 ***** Axes restored to original set *****
 -------------------------------------------------------------------
 Center     Atomic                   Forces (Hartrees/Bohr)
 Number     Number              X              Y              Z
 -------------------------------------------------------------------
      1       14          -0.002426225   -0.000414283   -0.001973673
      2        8           0.000178437   -0.000110620    0.000241479
      3        8           0.000023698    0.000127064    0.000204901
      4        8          -0.000832144    0.000240001    0.001113698
      5       40           0.002551426   -0.000338772    0.000450218
      6        1          -0.000021453   -0.000021493    0.000027892
      7        1           0.000020104   -0.000024424   -0.000017470
      8        8          -0.001224194   -0.000313575    0.000454047
      9        1           0.000276131    0.000363532    0.000088891
     10        8           0.000556591   -0.000559822   -0.000113820
     11        1          -0.000081179    0.000172299   -0.000139107
     12        8           0.000343619    0.001080503    0.000197312
     13        1           0.000080931   -0.000095904   -0.000098719
     14        8           0.000533975   -0.000239314   -0.000287957
     15        1           0.000020284    0.000134809   -0.000147692
 -------------------------------------------------------------------
 Cartesian Forces:  Max     0.002551426 RMS     0.000722068

 GradGradGradGradGradGradGradGradGradGradGradGradGradGradGradGradGradGrad
 Berny optimization.
 FormGI is forming the generalized inverse of G from B-inverse, IUseBI=4.
 Internal  Forces:  Max     0.003244502 RMS     0.000561518
 Search for a local minimum.
 Step number   1 out of a maximum of   83
 All quantities printed in internal units (Hartrees-Bohrs-Radians)
 Mixed Optimization -- En-DIIS/RFO-DIIS
 Second derivative matrix not updated -- first step.
 ITU=  0
     Eigenvalues ---    0.00230   0.00230   0.00230   0.00588   0.03138
     Eigenvalues ---    0.03732   0.03782   0.04429   0.04750   0.07571
     Eigenvalues ---    0.08496   0.10494   0.12833   0.15196   0.15459
     Eigenvalues ---    0.16000   0.16000   0.16000   0.16000   0.16000
     Eigenvalues ---    0.16000   0.18304   0.18952   0.19233   0.19683
     Eigenvalues ---    0.20441   0.21677   0.22741   0.35536   0.37017
     Eigenvalues ---    0.43277   0.43863   0.54274   0.54624   0.54680
     Eigenvalues ---    0.54844   0.54944   0.553451000.000001000.00000
     Eigenvalues --- 1000.000001000.000001000.000001000.000001000.00000
     Eigenvalues --- 1000.000001000.000001000.000001000.000001000.00000
     Eigenvalues --- 1000.000001000.000001000.000001000.000001000.00000
     Eigenvalues --- 1000.000001000.000001000.000001000.000001000.00000
     Eigenvalues --- 1000.000001000.000001000.000001000.000001000.00000
     Eigenvalues --- 1000.000001000.000001000.000001000.000001000.00000
     Eigenvalues --- 1000.000001000.000001000.00000
 RFO step:  Lambda=-1.06339564D-04 EMin= 2.30000000D-03
 Linear search not attempted -- first point.
 Iteration  1 RMS(Cart)=  0.00701389 RMS(Int)=  0.00001044
 Iteration  2 RMS(Cart)=  0.00001044 RMS(Int)=  0.00000396
 Iteration  3 RMS(Cart)=  0.00000000 RMS(Int)=  0.00000396
 Iteration  1 RMS(Cart)=  0.00000031 RMS(Int)=  0.00000029
 Variable       Old X    -DE/DX   Delta X   Delta X   Delta X     New X
                                 (Linear)    (Quad)   (Total)
    R1        3.10319  -0.00023   0.00000  -0.00053  -0.00053   3.10266
    R2        3.11029  -0.00010   0.00000  -0.00024  -0.00024   3.11006
    R3        3.07737  -0.00068   0.00000   0.00307   0.00306   3.08044
    R4        5.65312   0.00324   0.00000   0.01675   0.01675   5.66987
    R5        3.19520   0.00000   0.00000   0.00001   0.00001   3.19522
    R6        1.81970   0.00001   0.00000   0.00001   0.00001   1.81971
    R7        1.82168   0.00003   0.00000   0.00006   0.00006   1.82174
    R8        3.87519   0.00056   0.00000   0.01685   0.01685   3.89205
    R9        3.72021   0.00022   0.00000   0.00112   0.00112   3.72133
   R10        3.74644   0.00097   0.00000   0.00509   0.00509   3.75153
   R11        3.69437   0.00071   0.00000   0.00345   0.00345   3.69783
   R12        1.82483   0.00032   0.00000   0.00059   0.00059   1.82542
   R13        1.81882  -0.00014   0.00000  -0.00025  -0.00025   1.81857
   R14        1.82118   0.00001   0.00000   0.00001   0.00001   1.82119
   R15        1.81527  -0.00002   0.00000  -0.00003  -0.00003   1.81524
    A1        1.87881   0.00018   0.00000  -0.00026  -0.00027   1.87854
    A2        2.06640   0.00026   0.00000   0.00076   0.00076   2.06716
    A3        2.12624  -0.00018   0.00000  -0.00116  -0.00116   2.12508
    A4        1.84268  -0.00052   0.00000  -0.00205  -0.00205   1.84063
    A5        1.96857   0.00024   0.00000  -0.00061  -0.00061   1.96797
    A6        2.27616  -0.00001   0.00000   0.00148   0.00149   2.27764
    A7        1.98615  -0.00060   0.00000  -0.00292  -0.00292   1.98322
    A8        1.71611   0.00031   0.00000   0.00499   0.00499   1.72109
    A9        1.01126   0.00116   0.00000   0.00406   0.00407   1.01533
   A10        2.02313  -0.00003   0.00000  -0.00016  -0.00016   2.02297
   A11        1.99882  -0.00002   0.00000  -0.00012  -0.00012   1.99870
   A12        1.88937   0.00164   0.00000   0.00000  -0.00000   1.88937
   A13        1.78869   0.00056   0.00000   0.00320   0.00319   1.79187
   A14        1.65759   0.00057   0.00000   0.00336   0.00335   1.66094
   A15        2.36763  -0.00059   0.00000  -0.00226  -0.00226   2.36538
   A16        1.97349  -0.00003   0.00000   0.00036   0.00035   1.97385
   A17        1.98529   0.00011   0.00000   0.00163   0.00163   1.98692
   A18        1.83278   0.00024   0.00000  -0.00102  -0.00102   1.83177
   A19        1.99358   0.00023   0.00000   0.00407   0.00405   1.99763
   A20        1.82399  -0.00028   0.00000  -0.00325  -0.00325   1.82074
   A21        1.83238  -0.00035   0.00000  -0.00320  -0.00320   1.82919
   A22        2.03567   0.00024   0.00000   0.00151   0.00151   2.03718
   A23        2.30993  -0.00035   0.00000  -0.00216  -0.00216   2.30778
   A24        2.22354  -0.00029   0.00000  -0.00180  -0.00180   2.22174
   A25        2.47858   0.00036   0.00000   0.00226   0.00226   2.48084
    D1       -0.55056  -0.00035   0.00000  -0.00090  -0.00090  -0.55146
    D2        1.70706   0.00039   0.00000  -0.00137  -0.00137   1.70569
    D3        2.53001  -0.00053   0.00000   0.00011   0.00011   2.53013
    D4       -2.67792   0.00055   0.00000   0.00378   0.00378  -2.67414
    D5        2.64795   0.00034   0.00000   0.00135   0.00135   2.64929
    D6        0.33621  -0.00037   0.00000   0.00104   0.00103   0.33725
    D7       -0.42554   0.00055   0.00000   0.00035   0.00035  -0.42519
    D8       -1.59959  -0.00054   0.00000  -0.00304  -0.00303  -1.60262
    D9        2.58281   0.00039   0.00000   0.00113   0.00114   2.58394
   D10        0.55520  -0.00014   0.00000  -0.00475  -0.00475   0.55044
   D11       -1.49407   0.00010   0.00000  -0.00234  -0.00234  -1.49641
   D12       -0.63519   0.00016   0.00000   0.00230   0.00231  -0.63288
   D13       -2.66280  -0.00036   0.00000  -0.00358  -0.00358  -2.66638
   D14        1.57112  -0.00012   0.00000  -0.00117  -0.00117   1.56995
   D15        1.02778   0.00024   0.00000   0.00057   0.00058   1.02836
   D16       -0.99983  -0.00028   0.00000  -0.00531  -0.00531  -1.00514
   D17       -3.04909  -0.00004   0.00000  -0.00290  -0.00290  -3.05199
   D18       -0.01284  -0.00031   0.00000  -0.00529  -0.00528  -0.01812
   D19       -2.06943   0.00014   0.00000  -0.00205  -0.00205  -2.07148
   D20        2.12810  -0.00008   0.00000  -0.00305  -0.00305   2.12505
   D21        2.04875  -0.00025   0.00000  -0.00558  -0.00558   2.04317
   D22       -1.00186  -0.00054   0.00000   0.00130   0.00129  -1.00057
   D23       -1.54004   0.00010   0.00000   0.00126   0.00126  -1.53878
   D24        0.76721   0.00047   0.00000   0.00802   0.00803   0.77524
   D25        2.75973  -0.00001   0.00000   0.00418   0.00418   2.76390
   D26       -2.49161   0.00053   0.00000   0.00065   0.00066  -2.49095
   D27       -2.04159  -0.00012   0.00000   0.00073   0.00074  -2.04085
   D28        1.94002  -0.00043   0.00000  -0.00548  -0.00549   1.93453
   D29       -0.04755   0.00000   0.00000  -0.00161  -0.00161  -0.04916
   D30       -2.15834   0.00001   0.00000  -0.00057  -0.00057  -2.15891
   D31       -2.04482   0.00004   0.00000  -0.00046  -0.00046  -2.04528
   D32        0.03634  -0.00001   0.00000  -0.00198  -0.00198   0.03436
   D33        2.14001  -0.00004   0.00000  -0.00035  -0.00035   2.13966
         Item               Value     Threshold  Converged?
 Maximum Force            0.001827     0.000450     NO 
 RMS     Force            0.000425     0.000300     NO 
 Maximum Displacement     0.024246     0.001800     NO 
 RMS     Displacement     0.007012     0.001200     NO 
 Predicted change in Energy=-5.326499D-05
 GradGradGradGradGradGradGradGradGradGradGradGradGradGradGradGradGradGrad

                          Input orientation:                          
 ---------------------------------------------------------------------
 Center     Atomic      Atomic             Coordinates (Angstroms)
 Number     Number       Type             X           Y           Z
 ---------------------------------------------------------------------
      1         14           0       -1.911758   -0.041619   -0.132519
      2          8           0       -2.780047    1.331736   -0.368455
      3          8           0       -2.970728   -1.300920   -0.096410
      4          8           0       -0.628654   -0.324229   -1.097398
      5         40           0        1.085498   -0.011690    0.000730
      6          1           0       -3.581063    1.237899   -0.894615
      7          1           0       -2.601284   -2.142719   -0.386631
      8          8           0       -1.086290    0.191748    1.324557
      9          1           0       -1.219083    1.039561    1.768042
     10          8           0        1.476590   -1.477630    1.256111
     11          1           0        1.204094   -1.641254    2.164452
     12          8           0        1.211046    1.804277    0.792949
     13          1           0        1.873455    2.478682    0.605413
     14          8           0        2.542034   -0.089954   -1.303673
     15          1           0        3.328361   -0.591646   -1.533264
 ---------------------------------------------------------------------
                    Distance matrix (angstroms):
                    1          2          3          4          5
     1  Si   0.000000
     2  O    1.641857   0.000000
     3  O    1.645771   2.653535   0.000000
     4  O    1.630097   2.811062   2.727859   0.000000
     5  Zr   3.000366   4.108957   4.257290   2.059583   0.000000
     6  H    2.237081   0.962951   2.730429   3.346353   4.913237
     7  H    2.225902   3.479098   0.964024   2.775493   4.275943
     8  O    1.690837   2.652296   2.792546   2.518240   2.551582
     9  H    2.293661   2.662066   3.467318   3.227891   3.088626
    10  O    3.933361   5.352636   4.651793   3.361755   1.969242
    11  H    4.188489   5.579218   4.759881   3.966508   2.711315
    12  O    3.743759   4.183417   5.283980   3.389462   1.985223
    13  H    4.606983   4.890704   6.184178   4.125097   2.681132
    14  O    4.605454   5.587520   5.771869   3.186016   1.956806
    15  H    5.451923   6.509135   6.499704   3.989920   2.778475
                    6          7          8          9         10
     6  H    0.000000
     7  H    3.556205   0.000000
     8  O    3.499006   3.266972   0.000000
     9  H    3.564832   4.084116   0.965970   0.000000
    10  O    6.130218   4.446347   3.059390   3.723571   0.000000
    11  H    6.367506   4.608730   3.051423   3.635340   0.962345
    12  O    5.112041   5.612847   2.856678   2.727842   3.325049
    13  H    5.791493   6.508824   3.808848   3.603688   4.029059
    14  O    6.278761   5.613246   4.489063   4.985704   3.100534
    15  H    7.176019   6.235486   5.316954   5.851385   3.463328
                   11         12         13         14         15
    11  H    0.000000
    12  O    3.708470   0.000000
    13  H    4.455616   0.963731   0.000000
    14  O    4.027965   3.123374   3.269480   0.000000
    15  H    4.391729   3.954079   4.014674   0.960582   0.000000
 Stoichiometry    H6O7SiZr
 Framework group  C1[X(H6O7SiZr)]
 Deg. of freedom    39
 Full point group                 C1      NOp   1
 Largest Abelian subgroup         C1      NOp   1
 Largest concise Abelian subgroup C1      NOp   1
                         Standard orientation:                         
 ---------------------------------------------------------------------
 Center     Atomic      Atomic             Coordinates (Angstroms)
 Number     Number       Type             X           Y           Z
 ---------------------------------------------------------------------
      1         14           0       -1.895140   -0.040403   -0.135465
      2          8           0       -2.763952    1.335447   -0.354320
      3          8           0       -2.956349   -1.297299   -0.084363
      4          8           0       -0.628810   -0.324065   -1.121954
      5         40           0        1.103969   -0.017740   -0.051663
      6          1           0       -3.573763    1.244540   -0.867366
      7          1           0       -2.593739   -2.139372   -0.382307
      8          8           0       -1.045184    0.188101    1.308242
      9          1           0       -1.168631    1.035327    1.755532
     10          8           0        1.512258   -1.487115    1.194192
     11          1           0        1.254406   -1.651930    2.106583
     12          8           0        1.246875    1.796330    0.741960
     13          1           0        1.907693    2.469563    0.544845
     14          8           0        2.538587   -0.096777   -1.380089
     15          1           0        3.319827   -0.599840   -1.623622
 ---------------------------------------------------------------------
 Rotational constants (GHZ):           1.7714142           0.6155350           0.5886266
 Basis read from rwf:  (5D, 7F)
 Pseudo-potential data read from rwf file.
 There are   178 symmetry adapted cartesian basis functions of A   symmetry.
 There are   168 symmetry adapted basis functions of A   symmetry.
   168 basis functions,   339 primitive gaussians,   178 cartesian basis functions
    44 alpha electrons       44 beta electrons
       nuclear repulsion energy       664.5432771379 Hartrees.
 NAtoms=   15 NActive=   15 NUniq=   15 SFac= 1.00D+00 NAtFMM=   60 NAOKFM=F Big=F
 Integral buffers will be    131072 words long.
 Raffenetti 2 integral format.
 Two-electron integral symmetry is turned on.
 One-electron integrals computed using PRISM.
   1 Symmetry operations used in ECPInt.
 ECPInt:  NShTT=    1770 NPrTT=   10201 LenC2=    1667 LenP2D=    6747.
 LDataN:  DoStor=T MaxTD1= 5 Len=  102
 NBasis=   168 RedAO= T EigKep=  8.29D-03  NBF=   168
 NBsUse=   168 1.00D-06 EigRej= -1.00D+00 NBFU=   168
 Defaulting to unpruned grid for atomic number  40.
 Initial guess from the checkpoint file:  "/localscratch/sarashs.33453166.0/Gau-10874.chk"
 B after Tr=    -0.000000    0.000000   -0.000000
         Rot=    1.000000    0.000272   -0.000141    0.000197 Ang=   0.04 deg.
 ExpMin= 2.43D-02 ExpMax= 1.61D+04 ExpMxC= 2.43D+03 IAcc=3 IRadAn=         5 AccDes= 0.00D+00
 Harris functional with IExCor=  402 and IRadAn=       5 diagonalized for initial guess.
 HarFok:  IExCor=  402 AccDes= 0.00D+00 IRadAn=         5 IDoV= 1 UseB2=F ITyADJ=14
 ICtDFT=  3500011 ScaDFX=  1.000000  1.000000  1.000000  1.000000
 Defaulting to unpruned grid for atomic number  40.
 FoFCou: FMM=F IPFlag=           0 FMFlag=      100000 FMFlg1=           0
         NFxFlg=           0 DoJE=T BraDBF=F KetDBF=T FulRan=T
         wScrn=  0.000000 ICntrl=       500 IOpCl=  0 I1Cent=   200000004 NGrid=           0
         NMat0=    1 NMatS0=      1 NMatT0=    0 NMatD0=    1 NMtDS0=    0 NMtDT0=    0
 Petite list used in FoFCou.
 Requested convergence on RMS density matrix=1.00D-08 within 128 cycles.
 Requested convergence on MAX density matrix=1.00D-06.
 Requested convergence on             energy=1.00D-06.
 No special actions if energy rises.
 Defaulting to unpruned grid for atomic number  40.
 Defaulting to unpruned grid for atomic number  40.
 Defaulting to unpruned grid for atomic number  40.
 Defaulting to unpruned grid for atomic number  40.
 Defaulting to unpruned grid for atomic number  40.
 Defaulting to unpruned grid for atomic number  40.
 Defaulting to unpruned grid for atomic number  40.
 Defaulting to unpruned grid for atomic number  40.
 Defaulting to unpruned grid for atomic number  40.
 Defaulting to unpruned grid for atomic number  40.
 Defaulting to unpruned grid for atomic number  40.
 Defaulting to unpruned grid for atomic number  40.
 Defaulting to unpruned grid for atomic number  40.
 Defaulting to unpruned grid for atomic number  40.
 Defaulting to unpruned grid for atomic number  40.
 Defaulting to unpruned grid for atomic number  40.
 SCF Done:  E(RB3LYP) =  -866.688896412     A.U. after    9 cycles
            NFock=  9  Conv=0.53D-08     -V/T= 2.0445
   1 Symmetry operations used in ECPInt.
 ECPInt:  NShTT=    1770 NPrTT=   10201 LenC2=    1667 LenP2D=    6747.
 LDataN:  DoStor=T MaxTD1= 6 Len=  172
 Calling FoFJK, ICntrl=      2127 FMM=F ISym2X=0 I1Cent= 0 IOpClX= 0 NMat=1 NMatS=1 NMatT=0.
 Defaulting to unpruned grid for atomic number  40.
 Defaulting to unpruned grid for atomic number  40.
 Defaulting to unpruned grid for atomic number  40.
 Defaulting to unpruned grid for atomic number  40.
 Defaulting to unpruned grid for atomic number  40.
 Defaulting to unpruned grid for atomic number  40.
 Defaulting to unpruned grid for atomic number  40.
 Defaulting to unpruned grid for atomic number  40.
 Defaulting to unpruned grid for atomic number  40.
 Defaulting to unpruned grid for atomic number  40.
 Defaulting to unpruned grid for atomic number  40.
 Defaulting to unpruned grid for atomic number  40.
 Defaulting to unpruned grid for atomic number  40.
 Defaulting to unpruned grid for atomic number  40.
 Defaulting to unpruned grid for atomic number  40.
 Defaulting to unpruned grid for atomic number  40.
 ***** Axes restored to original set *****
 -------------------------------------------------------------------
 Center     Atomic                   Forces (Hartrees/Bohr)
 Number     Number              X              Y              Z
 -------------------------------------------------------------------
      1       14          -0.001250064   -0.000732603   -0.002421111
      2        8           0.000000504    0.000139888    0.000055268
      3        8          -0.000064812   -0.000104692    0.000127743
      4        8           0.000707904    0.001090305    0.003703401
      5       40           0.000905520    0.000088059   -0.001432391
      6        1           0.000003465    0.000003651    0.000004638
      7        1          -0.000015151    0.000027827   -0.000036431
      8        8           0.000113966   -0.000002701    0.000248880
      9        1           0.000086908    0.000046419   -0.000180785
     10        8           0.000245269    0.000133592   -0.000433060
     11        1          -0.000085436    0.000063758    0.000103832
     12        8          -0.000041004   -0.000675241   -0.000186312
     13        1           0.000049773   -0.000080095   -0.000103229
     14        8          -0.000648370   -0.000031797    0.000617152
     15        1          -0.000008474    0.000033630   -0.000067595
 -------------------------------------------------------------------
 Cartesian Forces:  Max     0.003703401 RMS     0.000789193

 GradGradGradGradGradGradGradGradGradGradGradGradGradGradGradGradGradGrad
 Berny optimization.
 Using GEDIIS/GDIIS optimizer.
 FormGI is forming the generalized inverse of G from B-inverse, IUseBI=4.
 Internal  Forces:  Max     0.002061740 RMS     0.000499720
 Search for a local minimum.
 Step number   2 out of a maximum of   83
 All quantities printed in internal units (Hartrees-Bohrs-Radians)
 Mixed Optimization -- En-DIIS/RFO-DIIS
 Swapping is turned off.
 Update second derivatives using D2CorX and points    1    2
 DE= -4.54D-05 DEPred=-5.33D-05 R= 8.52D-01
 TightC=F SS=  1.41D+00  RLast= 3.27D-02 DXNew= 5.0454D-01 9.7970D-02
 Trust test= 8.52D-01 RLast= 3.27D-02 DXMaxT set to 3.00D-01
 ITU=  1  0
     Eigenvalues ---    0.00230   0.00230   0.00230   0.00594   0.03057
     Eigenvalues ---    0.03731   0.03782   0.04424   0.04744   0.07599
     Eigenvalues ---    0.07802   0.10927   0.12641   0.15072   0.15455
     Eigenvalues ---    0.15919   0.16000   0.16000   0.16000   0.16000
     Eigenvalues ---    0.16112   0.18261   0.19159   0.19487   0.19842
     Eigenvalues ---    0.21656   0.22204   0.25186   0.35643   0.37063
     Eigenvalues ---    0.43312   0.43929   0.54299   0.54625   0.54680
     Eigenvalues ---    0.54845   0.54989   0.553441000.000001000.00000
     Eigenvalues --- 1000.000001000.000001000.000001000.000001000.00000
     Eigenvalues --- 1000.000001000.000001000.000001000.000001000.00000
     Eigenvalues --- 1000.000001000.000001000.000001000.000001000.00000
     Eigenvalues --- 1000.000001000.000001000.000001000.000001000.00000
     Eigenvalues --- 1000.000001000.000001000.000001000.000001000.00000
     Eigenvalues --- 1000.000001000.000001000.000001000.000001000.00000
     Eigenvalues --- 1000.000001000.000001000.00000
 En-DIIS/RFO-DIIS/Sim-DIIS IScMMF=       -3 using points:     2    1
 RFO step:  Lambda=-1.30225436D-05.
 DidBck=F Rises=F RFO-DIIS coefs:    0.95330    0.04670
 Iteration  1 RMS(Cart)=  0.00382551 RMS(Int)=  0.00000499
 Iteration  2 RMS(Cart)=  0.00000694 RMS(Int)=  0.00000071
 Iteration  3 RMS(Cart)=  0.00000000 RMS(Int)=  0.00000071
 Iteration  1 RMS(Cart)=  0.00000014 RMS(Int)=  0.00000013
 Variable       Old X    -DE/DX   Delta X   Delta X   Delta X     New X
                                 (Linear)    (Quad)   (Total)
    R1        3.10266   0.00011   0.00002   0.00014   0.00016   3.10282
    R2        3.11006   0.00011   0.00001   0.00019   0.00020   3.11026
    R3        3.08044  -0.00162  -0.00014  -0.00018  -0.00032   3.08012
    R4        5.66987   0.00143  -0.00078  -0.00027  -0.00105   5.66882
    R5        3.19522   0.00016  -0.00000   0.00039   0.00039   3.19560
    R6        1.81971  -0.00001  -0.00000  -0.00001  -0.00001   1.81971
    R7        1.82174  -0.00002  -0.00000  -0.00002  -0.00002   1.82172
    R8        3.89205  -0.00173  -0.00079  -0.00016  -0.00094   3.89110
    R9        3.72133  -0.00032  -0.00005  -0.00128  -0.00133   3.72000
   R10        3.75153  -0.00081  -0.00024  -0.00296  -0.00320   3.74833
   R11        3.69783  -0.00086  -0.00016  -0.00315  -0.00331   3.69451
   R12        1.82542  -0.00005  -0.00003   0.00000  -0.00003   1.82539
   R13        1.81857   0.00011   0.00001   0.00014   0.00015   1.81872
   R14        1.82119  -0.00000  -0.00000  -0.00000  -0.00000   1.82118
   R15        1.81524  -0.00001   0.00000  -0.00002  -0.00002   1.81522
    A1        1.87854   0.00007   0.00001   0.00033   0.00035   1.87889
    A2        2.06716   0.00032  -0.00004  -0.00003  -0.00007   2.06709
    A3        2.12508  -0.00004   0.00005  -0.00028  -0.00023   2.12486
    A4        1.84063  -0.00015   0.00010  -0.00119  -0.00109   1.83954
    A5        1.96797   0.00054   0.00003   0.00092   0.00095   1.96891
    A6        2.27764  -0.00005  -0.00007   0.00004  -0.00003   2.27762
    A7        1.98322  -0.00008   0.00014  -0.00009   0.00005   1.98327
    A8        1.72109  -0.00083  -0.00023  -0.00018  -0.00041   1.72068
    A9        1.01533   0.00035  -0.00019  -0.00028  -0.00047   1.01486
   A10        2.02297   0.00001   0.00001   0.00001   0.00001   2.02298
   A11        1.99870  -0.00001   0.00001  -0.00007  -0.00006   1.99864
   A12        1.88937   0.00206   0.00000   0.00000   0.00000   1.88937
   A13        1.79187   0.00043  -0.00015   0.00255   0.00240   1.79428
   A14        1.66094   0.00034  -0.00016   0.00045   0.00029   1.66123
   A15        2.36538  -0.00057   0.00011  -0.00117  -0.00107   2.36430
   A16        1.97385   0.00004  -0.00002  -0.00011  -0.00013   1.97372
   A17        1.98692  -0.00014  -0.00008   0.00161   0.00153   1.98845
   A18        1.83177   0.00031   0.00005  -0.00079  -0.00074   1.83102
   A19        1.99763  -0.00005  -0.00019   0.00108   0.00089   1.99852
   A20        1.82074  -0.00008   0.00015  -0.00138  -0.00123   1.81952
   A21        1.82919  -0.00003   0.00015  -0.00104  -0.00089   1.82829
   A22        2.03718  -0.00017  -0.00007  -0.00070  -0.00077   2.03641
   A23        2.30778  -0.00018   0.00010  -0.00131  -0.00121   2.30656
   A24        2.22174  -0.00025   0.00008  -0.00165  -0.00157   2.22017
   A25        2.48084   0.00013  -0.00011   0.00105   0.00095   2.48178
    D1       -0.55146  -0.00026   0.00004  -0.00087  -0.00083  -0.55229
    D2        1.70569   0.00085   0.00006   0.00074   0.00080   1.70649
    D3        2.53013  -0.00046  -0.00001   0.00069   0.00068   2.53081
    D4       -2.67414  -0.00013  -0.00018  -0.00030  -0.00047  -2.67461
    D5        2.64929   0.00021  -0.00006   0.00055   0.00049   2.64978
    D6        0.33725  -0.00073  -0.00005  -0.00044  -0.00049   0.33676
    D7       -0.42519   0.00042  -0.00002  -0.00117  -0.00119  -0.42638
    D8       -1.60262   0.00002   0.00014  -0.00074  -0.00060  -1.60322
    D9        2.58394   0.00022  -0.00005   0.00433   0.00428   2.58822
   D10        0.55044   0.00008   0.00022   0.00252   0.00275   0.55319
   D11       -1.49641   0.00010   0.00011   0.00435   0.00446  -1.49196
   D12       -0.63288  -0.00001  -0.00011   0.00629   0.00618  -0.62670
   D13       -2.66638  -0.00015   0.00017   0.00448   0.00465  -2.66173
   D14        1.56995  -0.00014   0.00005   0.00630   0.00636   1.57630
   D15        1.02836   0.00017  -0.00003   0.00592   0.00589   1.03425
   D16       -1.00514   0.00004   0.00025   0.00411   0.00436  -1.00078
   D17       -3.05199   0.00005   0.00014   0.00593   0.00606  -3.04593
   D18       -0.01812  -0.00008   0.00025  -0.00266  -0.00241  -0.02053
   D19       -2.07148  -0.00003   0.00010  -0.00226  -0.00216  -2.07365
   D20        2.12505  -0.00014   0.00014  -0.00319  -0.00305   2.12200
   D21        2.04317  -0.00005   0.00026  -0.00232  -0.00206   2.04112
   D22       -1.00057  -0.00046  -0.00006   0.00057   0.00051  -1.00006
   D23       -1.53878   0.00034  -0.00006  -0.00061  -0.00067  -1.53944
   D24        0.77524   0.00012  -0.00038   0.00274   0.00237   0.77760
   D25        2.76390   0.00001  -0.00020   0.00117   0.00098   2.76488
   D26       -2.49095   0.00048  -0.00003   0.00364   0.00361  -2.48734
   D27       -2.04085  -0.00029  -0.00003   0.00287   0.00283  -2.03802
   D28        1.93453  -0.00016   0.00026   0.00031   0.00056   1.93510
   D29       -0.04916  -0.00001   0.00008   0.00208   0.00215  -0.04701
   D30       -2.15891   0.00004   0.00003   0.00096   0.00099  -2.15792
   D31       -2.04528  -0.00006   0.00002   0.00336   0.00338  -2.04190
   D32        0.03436   0.00008   0.00009   0.00227   0.00236   0.03672
   D33        2.13966  -0.00003   0.00002   0.00238   0.00240   2.14206
         Item               Value     Threshold  Converged?
 Maximum Force            0.000856     0.000450     NO 
 RMS     Force            0.000181     0.000300     YES
 Maximum Displacement     0.012138     0.001800     NO 
 RMS     Displacement     0.003825     0.001200     NO 
 Predicted change in Energy=-6.520844D-06
 GradGradGradGradGradGradGradGradGradGradGradGradGradGradGradGradGradGrad

                          Input orientation:                          
 ---------------------------------------------------------------------
 Center     Atomic      Atomic             Coordinates (Angstroms)
 Number     Number       Type             X           Y           Z
 ---------------------------------------------------------------------
      1         14           0       -1.911732   -0.041765   -0.133045
      2          8           0       -2.779250    1.331692   -0.371806
      3          8           0       -2.971157   -1.300723   -0.093551
      4          8           0       -0.627966   -0.326183   -1.096222
      5         40           0        1.084861   -0.012302    0.002653
      6          1           0       -3.580157    1.237327   -0.898030
      7          1           0       -2.601936   -2.143361   -0.381572
      8          8           0       -1.086650    0.195868    1.323797
      9          1           0       -1.218383    1.045984    1.763139
     10          8           0        1.479403   -1.480352    1.253376
     11          1           0        1.206954   -1.646095    2.161431
     12          8           0        1.210415    1.801084    0.796546
     13          1           0        1.872274    2.475549    0.607298
     14          8           0        2.539730   -0.086803   -1.301202
     15          1           0        3.325764   -0.587681   -1.533522
 ---------------------------------------------------------------------
                    Distance matrix (angstroms):
                    1          2          3          4          5
     1  Si   0.000000
     2  O    1.641944   0.000000
     3  O    1.645878   2.654028   0.000000
     4  O    1.629927   2.810935   2.728666   0.000000
     5  Zr   2.999809   4.108272   4.256826   2.059083   0.000000
     6  H    2.237168   0.962947   2.731257   3.346532   4.912759
     7  H    2.225950   3.479588   0.964012   2.776584   4.275688
     8  O    1.691040   2.651427   2.792852   2.517821   2.550337
     9  H    2.293348   2.660062   3.467931   3.226048   3.086133
    10  O    3.935923   5.355832   4.653382   3.360613   1.968538
    11  H    4.191026   5.583398   4.760341   3.965023   2.710076
    12  O    3.742731   4.183635   5.281952   3.389319   1.983532
    13  H    4.604745   4.889144   6.181443   4.123455   2.678622
    14  O    4.602406   5.582782   5.770780   3.183334   1.955053
    15  H    5.448920   6.504212   6.498704   3.986426   2.777146
                    6          7          8          9         10
     6  H    0.000000
     7  H    3.557063   0.000000
     8  O    3.498389   3.267470   0.000000
     9  H    3.563202   4.084841   0.965957   0.000000
    10  O    6.132982   4.446342   3.065828   3.730989   0.000000
    11  H    6.371096   4.606711   3.058608   3.645296   0.962426
    12  O    5.112630   5.610760   2.851530   2.720944   3.323984
    13  H    5.790354   6.506208   3.803360   3.596079   4.027520
    14  O    6.274463   5.613544   4.485662   4.979640   3.097118
    15  H    7.171210   6.235764   5.314849   5.846889   3.460160
                   11         12         13         14         15
    11  H    0.000000
    12  O    3.707556   0.000000
    13  H    4.454877   0.963730   0.000000
    14  O    4.024613   3.119575   3.263973   0.000000
    15  H    4.388881   3.950964   4.009878   0.960573   0.000000
 Stoichiometry    H6O7SiZr
 Framework group  C1[X(H6O7SiZr)]
 Deg. of freedom    39
 Full point group                 C1      NOp   1
 Largest Abelian subgroup         C1      NOp   1
 Largest concise Abelian subgroup C1      NOp   1
                         Standard orientation:                         
 ---------------------------------------------------------------------
 Center     Atomic      Atomic             Coordinates (Angstroms)
 Number     Number       Type             X           Y           Z
 ---------------------------------------------------------------------
      1         14           0       -1.895044   -0.040769   -0.135462
      2          8           0       -2.763733    1.335136   -0.355111
      3          8           0       -2.956206   -1.297725   -0.081506
      4          8           0       -0.628642   -0.324817   -1.121466
      5         40           0        1.103496   -0.017696   -0.051326
      6          1           0       -3.573775    1.243969   -0.867739
      7          1           0       -2.593725   -2.140218   -0.378378
      8          8           0       -1.044508    0.190786    1.307656
      9          1           0       -1.166914    1.039823    1.751756
     10          8           0        1.516515   -1.490327    1.187994
     11          1           0        1.259408   -1.658287    2.100107
     12          8           0        1.246416    1.793014    0.745734
     13          1           0        1.906296    2.466729    0.547140
     14          8           0        2.535537   -0.091133   -1.380272
     15          1           0        3.316427   -0.592869   -1.627605
 ---------------------------------------------------------------------
 Rotational constants (GHZ):           1.7728082           0.6158729           0.5888025
 Basis read from rwf:  (5D, 7F)
 Pseudo-potential data read from rwf file.
 There are   178 symmetry adapted cartesian basis functions of A   symmetry.
 There are   168 symmetry adapted basis functions of A   symmetry.
   168 basis functions,   339 primitive gaussians,   178 cartesian basis functions
    44 alpha electrons       44 beta electrons
       nuclear repulsion energy       664.6845779629 Hartrees.
 NAtoms=   15 NActive=   15 NUniq=   15 SFac= 1.00D+00 NAtFMM=   60 NAOKFM=F Big=F
 Integral buffers will be    131072 words long.
 Raffenetti 2 integral format.
 Two-electron integral symmetry is turned on.
 One-electron integrals computed using PRISM.
   1 Symmetry operations used in ECPInt.
 ECPInt:  NShTT=    1770 NPrTT=   10201 LenC2=    1666 LenP2D=    6745.
 LDataN:  DoStor=T MaxTD1= 5 Len=  102
 NBasis=   168 RedAO= T EigKep=  8.29D-03  NBF=   168
 NBsUse=   168 1.00D-06 EigRej= -1.00D+00 NBFU=   168
 Defaulting to unpruned grid for atomic number  40.
 Initial guess from the checkpoint file:  "/localscratch/sarashs.33453166.0/Gau-10874.chk"
 B after Tr=     0.000000   -0.000000    0.000000
         Rot=    1.000000   -0.000599   -0.000223   -0.000136 Ang=  -0.07 deg.
 Requested convergence on RMS density matrix=1.00D-08 within 128 cycles.
 Requested convergence on MAX density matrix=1.00D-06.
 Requested convergence on             energy=1.00D-06.
 No special actions if energy rises.
 Defaulting to unpruned grid for atomic number  40.
 Defaulting to unpruned grid for atomic number  40.
 Defaulting to unpruned grid for atomic number  40.
 Defaulting to unpruned grid for atomic number  40.
 Defaulting to unpruned grid for atomic number  40.
 Defaulting to unpruned grid for atomic number  40.
 Defaulting to unpruned grid for atomic number  40.
 Defaulting to unpruned grid for atomic number  40.
 Defaulting to unpruned grid for atomic number  40.
 Defaulting to unpruned grid for atomic number  40.
 Defaulting to unpruned grid for atomic number  40.
 Defaulting to unpruned grid for atomic number  40.
 Defaulting to unpruned grid for atomic number  40.
 Defaulting to unpruned grid for atomic number  40.
 Defaulting to unpruned grid for atomic number  40.
 Defaulting to unpruned grid for atomic number  40.
 SCF Done:  E(RB3LYP) =  -866.688903724     A.U. after    9 cycles
            NFock=  9  Conv=0.30D-08     -V/T= 2.0445
   1 Symmetry operations used in ECPInt.
 ECPInt:  NShTT=    1770 NPrTT=   10201 LenC2=    1666 LenP2D=    6745.
 LDataN:  DoStor=T MaxTD1= 6 Len=  172
 Calling FoFJK, ICntrl=      2127 FMM=F ISym2X=0 I1Cent= 0 IOpClX= 0 NMat=1 NMatS=1 NMatT=0.
 Defaulting to unpruned grid for atomic number  40.
 Defaulting to unpruned grid for atomic number  40.
 Defaulting to unpruned grid for atomic number  40.
 Defaulting to unpruned grid for atomic number  40.
 Defaulting to unpruned grid for atomic number  40.
 Defaulting to unpruned grid for atomic number  40.
 Defaulting to unpruned grid for atomic number  40.
 Defaulting to unpruned grid for atomic number  40.
 Defaulting to unpruned grid for atomic number  40.
 Defaulting to unpruned grid for atomic number  40.
 Defaulting to unpruned grid for atomic number  40.
 Defaulting to unpruned grid for atomic number  40.
 Defaulting to unpruned grid for atomic number  40.
 Defaulting to unpruned grid for atomic number  40.
 Defaulting to unpruned grid for atomic number  40.
 Defaulting to unpruned grid for atomic number  40.
 ***** Axes restored to original set *****
 -------------------------------------------------------------------
 Center     Atomic                   Forces (Hartrees/Bohr)
 Number     Number              X              Y              Z
 -------------------------------------------------------------------
      1       14          -0.001250260   -0.000605566   -0.002261355
      2        8          -0.000032885    0.000071284    0.000002506
      3        8           0.000011650   -0.000021086    0.000098296
      4        8           0.000401660    0.000972805    0.003474133
      5       40           0.000453275   -0.000265053   -0.001494621
      6        1          -0.000006800    0.000017480   -0.000001036
      7        1          -0.000013651    0.000006575   -0.000045539
      8        8           0.000042392   -0.000194408    0.000248350
      9        1           0.000120653    0.000053255   -0.000129039
     10        8           0.000129991   -0.000187698    0.000051841
     11        1          -0.000007982    0.000039608    0.000067395
     12        8           0.000056489    0.000175757    0.000110710
     13        1           0.000063011   -0.000037534   -0.000058357
     14        8           0.000036476   -0.000083375    0.000035997
     15        1          -0.000004021    0.000057956   -0.000099280
 -------------------------------------------------------------------
 Cartesian Forces:  Max     0.003474133 RMS     0.000715290

 GradGradGradGradGradGradGradGradGradGradGradGradGradGradGradGradGradGrad
 Berny optimization.
 Using GEDIIS/GDIIS optimizer.
 FormGI is forming the generalized inverse of G from B-inverse, IUseBI=4.
 Internal  Forces:  Max     0.001974437 RMS     0.000454774
 Search for a local minimum.
 Step number   3 out of a maximum of   83
 All quantities printed in internal units (Hartrees-Bohrs-Radians)
 Mixed Optimization -- En-DIIS/RFO-DIIS
 Swapping is turned off.
 Update second derivatives using D2CorX and points    1    2    3
 DE= -7.31D-06 DEPred=-6.52D-06 R= 1.12D+00
 TightC=F SS=  1.41D+00  RLast= 1.92D-02 DXNew= 5.0454D-01 5.7545D-02
 Trust test= 1.12D+00 RLast= 1.92D-02 DXMaxT set to 3.00D-01
 ITU=  1  1  0
     Eigenvalues ---    0.00226   0.00230   0.00234   0.00692   0.02382
     Eigenvalues ---    0.03714   0.03782   0.04399   0.04644   0.06646
     Eigenvalues ---    0.07801   0.11291   0.11653   0.14820   0.15463
     Eigenvalues ---    0.15702   0.16000   0.16000   0.16000   0.16039
     Eigenvalues ---    0.16066   0.17920   0.19048   0.19411   0.19963
     Eigenvalues ---    0.21576   0.22957   0.30026   0.36294   0.37139
     Eigenvalues ---    0.43325   0.43886   0.54292   0.54627   0.54695
     Eigenvalues ---    0.54846   0.54925   0.553441000.000001000.00000
     Eigenvalues --- 1000.000001000.000001000.000001000.000001000.00000
     Eigenvalues --- 1000.000001000.000001000.000001000.000001000.00000
     Eigenvalues --- 1000.000001000.000001000.000001000.000001000.00000
     Eigenvalues --- 1000.000001000.000001000.000001000.000001000.00000
     Eigenvalues --- 1000.000001000.000001000.000001000.000001000.00000
     Eigenvalues --- 1000.000001000.000001000.000001000.000001000.00000
     Eigenvalues --- 1000.000001000.000001000.00000
 En-DIIS/RFO-DIIS/Sim-DIIS IScMMF=       -3 using points:     3    2    1
 RFO step:  Lambda=-6.55920175D-06.
 DidBck=F Rises=F RFO-DIIS coefs:    1.16556   -0.19334    0.02778
 Iteration  1 RMS(Cart)=  0.00255977 RMS(Int)=  0.00000460
 Iteration  2 RMS(Cart)=  0.00000419 RMS(Int)=  0.00000084
 Iteration  3 RMS(Cart)=  0.00000000 RMS(Int)=  0.00000084
 Iteration  1 RMS(Cart)=  0.00000001 RMS(Int)=  0.00000001
 Variable       Old X    -DE/DX   Delta X   Delta X   Delta X     New X
                                 (Linear)    (Quad)   (Total)
    R1        3.10282   0.00009   0.00004   0.00026   0.00030   3.10312
    R2        3.11026   0.00001   0.00004   0.00009   0.00013   3.11039
    R3        3.08012  -0.00162  -0.00014  -0.00066  -0.00080   3.07932
    R4        5.66882   0.00150  -0.00064  -0.00058  -0.00122   5.66760
    R5        3.19560   0.00016   0.00006   0.00064   0.00071   3.19631
    R6        1.81971   0.00000  -0.00000   0.00001   0.00001   1.81971
    R7        1.82172   0.00000  -0.00001   0.00000  -0.00000   1.82172
    R8        3.89110  -0.00144  -0.00062  -0.00010  -0.00072   3.89038
    R9        3.72000   0.00021  -0.00025   0.00084   0.00058   3.72058
   R10        3.74833   0.00016  -0.00067   0.00023  -0.00044   3.74789
   R11        3.69451   0.00007  -0.00064  -0.00054  -0.00118   3.69333
   R12        1.82539  -0.00003  -0.00002  -0.00001  -0.00003   1.82536
   R13        1.81872   0.00006   0.00003   0.00016   0.00019   1.81891
   R14        1.82118   0.00003  -0.00000   0.00006   0.00006   1.82124
   R15        1.81522  -0.00001  -0.00000  -0.00003  -0.00003   1.81519
    A1        1.87889   0.00004   0.00006   0.00036   0.00043   1.87931
    A2        2.06709   0.00030  -0.00003   0.00080   0.00077   2.06786
    A3        2.12486   0.00000  -0.00001  -0.00131  -0.00132   2.12354
    A4        1.83954  -0.00003  -0.00012   0.00004  -0.00009   1.83945
    A5        1.96891   0.00050   0.00017   0.00019   0.00037   1.96928
    A6        2.27762  -0.00005  -0.00005   0.00104   0.00099   2.27861
    A7        1.98327  -0.00016   0.00009  -0.00091  -0.00082   1.98245
    A8        1.72068  -0.00076  -0.00021  -0.00070  -0.00091   1.71977
    A9        1.01486   0.00035  -0.00019  -0.00054  -0.00073   1.01413
   A10        2.02298   0.00003   0.00001   0.00022   0.00023   2.02321
   A11        1.99864   0.00000  -0.00001  -0.00002  -0.00003   1.99861
   A12        1.88937   0.00197   0.00000   0.00000   0.00000   1.88937
   A13        1.79428   0.00028   0.00031   0.00163   0.00194   1.79621
   A14        1.66123   0.00041  -0.00004   0.00184   0.00179   1.66303
   A15        2.36430  -0.00055  -0.00011  -0.00134  -0.00145   2.36285
   A16        1.97372  -0.00004  -0.00003   0.00083   0.00080   1.97452
   A17        1.98845  -0.00009   0.00021   0.00130   0.00151   1.98996
   A18        1.83102   0.00031  -0.00009  -0.00124  -0.00133   1.82969
   A19        1.99852  -0.00008   0.00003   0.00088   0.00092   1.99944
   A20        1.81952   0.00006  -0.00011  -0.00102  -0.00114   1.81838
   A21        1.82829  -0.00011  -0.00006  -0.00150  -0.00156   1.82674
   A22        2.03641  -0.00007  -0.00017  -0.00062  -0.00079   2.03562
   A23        2.30656  -0.00007  -0.00014  -0.00116  -0.00130   2.30527
   A24        2.22017  -0.00016  -0.00021  -0.00191  -0.00212   2.21806
   A25        2.48178   0.00020   0.00009   0.00202   0.00211   2.48390
    D1       -0.55229  -0.00024  -0.00011  -0.00087  -0.00098  -0.55326
    D2        1.70649   0.00076   0.00017   0.00044   0.00062   1.70711
    D3        2.53081  -0.00046   0.00011   0.00058   0.00069   2.53150
    D4       -2.67461  -0.00006  -0.00018  -0.00001  -0.00019  -2.67480
    D5        2.64978   0.00016   0.00004   0.00003   0.00008   2.64986
    D6        0.33676  -0.00068  -0.00011  -0.00153  -0.00164   0.33512
    D7       -0.42638   0.00039  -0.00021  -0.00148  -0.00168  -0.42806
    D8       -1.60322   0.00005  -0.00002  -0.00021  -0.00022  -1.60345
    D9        2.58822   0.00018   0.00068  -0.00165  -0.00097   2.58725
   D10        0.55319   0.00009   0.00059  -0.00348  -0.00289   0.55030
   D11       -1.49196   0.00012   0.00080  -0.00249  -0.00169  -1.49365
   D12       -0.62670  -0.00008   0.00096   0.00011   0.00107  -0.62563
   D13       -2.66173  -0.00017   0.00087  -0.00172  -0.00085  -2.66258
   D14        1.57630  -0.00014   0.00108  -0.00074   0.00035   1.57665
   D15        1.03425   0.00000   0.00096  -0.00219  -0.00123   1.03302
   D16       -1.00078  -0.00009   0.00087  -0.00401  -0.00315  -1.00393
   D17       -3.04593  -0.00006   0.00108  -0.00303  -0.00195  -3.04788
   D18       -0.02053  -0.00009  -0.00025  -0.00371  -0.00396  -0.02449
   D19       -2.07365  -0.00003  -0.00030  -0.00368  -0.00398  -2.07763
   D20        2.12200  -0.00010  -0.00042  -0.00311  -0.00353   2.11846
   D21        2.04112  -0.00008  -0.00019  -0.00526  -0.00545   2.03567
   D22       -1.00006  -0.00048   0.00005  -0.00623  -0.00618  -1.00624
   D23       -1.53944   0.00036  -0.00015  -0.00666  -0.00681  -1.54625
   D24        0.77760   0.00010   0.00017  -0.00299  -0.00282   0.77478
   D25        2.76488  -0.00003   0.00005  -0.00499  -0.00495   2.75994
   D26       -2.48734   0.00042   0.00058   0.00024   0.00082  -2.48652
   D27       -2.03802  -0.00031   0.00045   0.00076   0.00121  -2.03681
   D28        1.93510  -0.00007   0.00025  -0.00272  -0.00248   1.93262
   D29       -0.04701  -0.00004   0.00040  -0.00100  -0.00060  -0.04761
   D30       -2.15792   0.00006   0.00018   0.00410   0.00428  -2.15364
   D31       -2.04190  -0.00005   0.00057   0.00418   0.00476  -2.03715
   D32        0.03672   0.00007   0.00045   0.00412   0.00456   0.04129
[...]
 ! A12   A(1,4,5)              108.2531         -DE/DX =    0.0017              !
 ! A13   A(1,5,10)             103.028          -DE/DX =    0.0002              !
 ! A14   A(1,5,12)              95.2338         -DE/DX =    0.0002              !
 ! A15   A(1,5,14)             135.1802         -DE/DX =   -0.0004              !
 ! A16   A(4,5,10)             113.0432         -DE/DX =    0.0                 !
 ! A17   A(4,5,12)             114.1492         -DE/DX =   -0.0002              !
 ! A18   A(4,5,14)             104.6981         -DE/DX =    0.0004              !
 ! A19   A(10,5,12)            114.5035         -DE/DX =    0.0                 !
 ! A20   A(10,5,14)            104.4267         -DE/DX =    0.0                 !
 ! A21   A(12,5,14)            104.5721         -DE/DX =    0.0                 !
 ! A22   A(1,8,9)              116.5904         -DE/DX =    0.0                 !
 ! A23   A(5,10,11)            132.1295         -DE/DX =    0.0                 !
 ! A24   A(5,12,13)            126.6744         -DE/DX =    0.0                 !
 ! A25   A(5,14,15)            143.7665         -DE/DX =    0.0                 !
 ! D1    D(3,1,2,6)            -31.5756         -DE/DX =   -0.0002              !
 ! D2    D(4,1,2,6)             98.0105         -DE/DX =    0.0006              !
 ! D3    D(5,1,2,6)            145.22           -DE/DX =   -0.0004              !
 ! D4    D(8,1,2,6)           -153.1278         -DE/DX =    0.0                 !
 ! D5    D(2,1,3,7)            151.4727         -DE/DX =    0.0002              !
 ! D6    D(4,1,3,7)             18.8403         -DE/DX =   -0.0005              !
 ! D7    D(5,1,3,7)            -24.9361         -DE/DX =    0.0004              !
 ! D8    D(8,1,3,7)            -92.2096         -DE/DX =    0.0                 !
 ! D9    D(2,1,5,10)           148.6587         -DE/DX =    0.0002              !
 ! D10   D(2,1,5,12)            31.9995         -DE/DX =    0.0001              !
 ! D11   D(2,1,5,14)           -84.7835         -DE/DX =    0.0001              !
 ! D12   D(3,1,5,10)           -35.3594         -DE/DX =   -0.0001              !
 ! D13   D(3,1,5,12)          -152.0187         -DE/DX =   -0.0001              !
 ! D14   D(3,1,5,14)            91.1984         -DE/DX =   -0.0002              !
 ! D15   D(8,1,5,10)            59.6132         -DE/DX =    0.0001              !
 ! D16   D(8,1,5,12)           -57.0461         -DE/DX =    0.0                 !
 ! D17   D(8,1,5,14)          -173.829          -DE/DX =    0.0                 !
 ! D18   D(2,1,8,9)             -2.1529         -DE/DX =   -0.0001              !
 ! D19   D(3,1,8,9)           -119.8348         -DE/DX =    0.0                 !
 ! D20   D(4,1,8,9)            120.5477         -DE/DX =   -0.0001              !
 ! D21   D(5,1,8,9)            115.8418         -DE/DX =    0.0001              !
 ! D22   D(1,5,10,11)          -58.6917         -DE/DX =   -0.0003              !
 ! D23   D(4,5,10,11)          -89.7027         -DE/DX =    0.0004              !
 ! D24   D(12,5,10,11)          43.3347         -DE/DX =    0.0                 !
 ! D25   D(14,5,10,11)         157.0855         -DE/DX =    0.0                 !
 ! D26   D(1,5,12,13)         -142.4037         -DE/DX =    0.0003              !
 ! D27   D(4,5,12,13)         -116.7781         -DE/DX =   -0.0003              !
 ! D28   D(10,5,12,13)         110.7067         -DE/DX =    0.0                 !
 ! D29   D(14,5,12,13)          -2.9585         -DE/DX =    0.0                 !
 ! D30   D(1,5,14,15)         -122.5041         -DE/DX =    0.0001              !
 ! D31   D(4,5,14,15)         -115.4447         -DE/DX =   -0.0001              !
 ! D32   D(10,5,14,15)           3.589          -DE/DX =    0.0                 !
 ! D33   D(12,5,14,15)         124.2104         -DE/DX =    0.0                 !
 --------------------------------------------------------------------------------
 GradGradGradGradGradGradGradGradGradGradGradGradGradGradGradGradGradGrad

                          Input orientation:                          
 ---------------------------------------------------------------------
 Center     Atomic      Atomic             Coordinates (Angstroms)
 Number     Number       Type             X           Y           Z
 ---------------------------------------------------------------------
      1         14           0       -1.912780   -0.043662   -0.135002
      2          8           0       -2.775386    1.331515   -0.382166
      3          8           0       -2.974729   -1.300130   -0.090576
      4          8           0       -0.626590   -0.334640   -1.091670
      5         40           0        1.082261   -0.016521    0.011055
      6          1           0       -3.576392    1.237619   -0.908305
      7          1           0       -2.608121   -2.143882   -0.378716
      8          8           0       -1.089917    0.198477    1.323659
      9          1           0       -1.209445    1.057032    1.750233
     10          8           0        1.479160   -1.487034    1.258999
     11          1           0        1.219976   -1.646650    2.172100
     12          8           0        1.208199    1.796432    0.808535
     13          1           0        1.874857    2.465264    0.615426
     14          8           0        2.534195   -0.081068   -1.294885
     15          1           0        3.316881   -0.570513   -1.559396
 ---------------------------------------------------------------------
                    Distance matrix (angstroms):
                    1          2          3          4          5
     1  Si   0.000000
     2  O    1.642039   0.000000
     3  O    1.645729   2.655243   0.000000
     4  O    1.629160   2.810123   2.729123   0.000000
     5  Zr   2.998723   4.105273   4.256425   2.058488   0.000000
     6  H    2.237696   0.962937   2.733286   3.347679   4.911328
     7  H    2.225718   3.479421   0.964025   2.776350   4.277441
     8  O    1.692166   2.652248   2.792562   2.516485   2.547059
     9  H    2.293539   2.659820   3.472898   3.217589   3.070696
    10  O    3.941043   5.360859   4.657619   3.359738   1.969086
    11  H    4.207903   5.599702   4.778633   3.972829   2.710425
    12  O    3.743891   4.183643   5.281476   3.393921   1.984600
    13  H    4.604785   4.889309   6.180220   4.124424   2.674459
    14  O    4.595901   5.569569   5.769291   3.177445   1.953908
    15  H    5.445715   6.489938   6.501855   3.978111   2.786888
                    6          7          8          9         10
     6  H    0.000000
     7  H    3.557044   0.000000
     8  O    3.499148   3.269506   0.000000
     9  H    3.564109   4.090791   0.966110   0.000000
    10  O    6.138367   4.451901   3.073318   3.733923   0.000000
    11  H    6.388510   4.626903   3.075704   3.659229   0.962501
    12  O    5.113915   5.612481   2.846076   2.697871   3.325280
    13  H    5.791803   6.506123   3.798658   3.575447   4.023856
    14  O    6.263198   5.615868   4.479856   4.958110   3.100348
    15  H    7.156149   6.243007   5.321956   5.838679   3.487201
                   11         12         13         14         15
    11  H    0.000000
    12  O    3.703278   0.000000
    13  H    4.445216   0.963877   0.000000
    14  O    4.024700   3.115710   3.250819   0.000000
    15  H    4.413518   3.956775   4.003152   0.960270   0.000000
 Stoichiometry    H6O7SiZr
 Framework group  C1[X(H6O7SiZr)]
 Deg. of freedom    39
 Full point group                 C1      NOp   1
 Largest Abelian subgroup         C1      NOp   1
 Largest concise Abelian subgroup C1      NOp   1
                         Standard orientation:                         
 ---------------------------------------------------------------------
 Center     Atomic      Atomic             Coordinates (Angstroms)
 Number     Number       Type             X           Y           Z
 ---------------------------------------------------------------------
      1         14           0       -1.895048   -0.039884   -0.135580
      2          8           0       -2.759944    1.338946   -0.352542
      3          8           0       -2.958214   -1.294922   -0.080986
      4          8           0       -0.629159   -0.324241   -1.120886
      5         40           0        1.102392   -0.019111   -0.050371
      6          1           0       -3.571675    1.251222   -0.863077
      7          1           0       -2.599125   -2.136612   -0.384230
      8          8           0       -1.042192    0.187494    1.308152
      9          1           0       -1.151404    1.042303    1.744895
     10          8           0        1.521887   -1.501664    1.175746
     11          1           0        1.281060   -1.669207    2.092446
     12          8           0        1.247930    1.786243    0.760893
     13          1           0        1.911762    2.455696    0.560347
     14          8           0        2.527299   -0.074124   -1.386175
     15          1           0        3.303519   -0.562437   -1.671044
 ---------------------------------------------------------------------
 Rotational constants (GHZ):           1.7708658           0.6163083           0.5892950

 **********************************************************************

            Population analysis using the SCF Density.

 **********************************************************************

 Orbital symmetries:
       Occupied  (A) (A) (A) (A) (A) (A) (A) (A) (A) (A) (A) (A)
                 (A) (A) (A) (A) (A) (A) (A) (A) (A) (A) (A) (A)
                 (A) (A) (A) (A) (A) (A) (A) (A) (A) (A) (A) (A)
                 (A) (A) (A) (A) (A) (A) (A) (A)
       Virtual   (A) (A) (A) (A) (A) (A) (A) (A) (A) (A) (A) (A)
                 (A) (A) (A) (A) (A) (A) (A) (A) (A) (A) (A) (A)
                 (A) (A) (A) (A) (A) (A) (A) (A) (A) (A) (A) (A)
                 (A) (A) (A) (A) (A) (A) (A) (A) (A) (A) (A) (A)
                 (A) (A) (A) (A) (A) (A) (A) (A) (A) (A) (A) (A)
                 (A) (A) (A) (A) (A) (A) (A) (A) (A) (A) (A) (A)
                 (A) (A) (A) (A) (A) (A) (A) (A) (A) (A) (A) (A)
                 (A) (A) (A) (A) (A) (A) (A) (A) (A) (A) (A) (A)
                 (A) (A) (A) (A) (A) (A) (A) (A) (A) (A) (A) (A)
                 (A) (A) (A) (A) (A) (A) (A) (A) (A) (A) (A) (A)
                 (A) (A) (A) (A)
 The electronic state is 1-A.
 Alpha  occ. eigenvalues --  -66.19832 -19.16879 -19.15471 -19.15396 -19.13464
 Alpha  occ. eigenvalues --  -19.13070 -19.13035 -19.12230  -5.34196  -3.70194
 Alpha  occ. eigenvalues --   -3.70123  -3.70051  -2.05698  -1.26393  -1.26284
 Alpha  occ. eigenvalues --   -1.25857  -1.03700  -1.00929  -1.00047  -0.95156
 Alpha  occ. eigenvalues --   -0.94436  -0.93938  -0.93001  -0.58091  -0.53482
 Alpha  occ. eigenvalues --   -0.52368  -0.48157  -0.47109  -0.46523  -0.43293
 Alpha  occ. eigenvalues --   -0.39940  -0.39524  -0.37978  -0.36113  -0.34807
 Alpha  occ. eigenvalues --   -0.34074  -0.33833  -0.33409  -0.32364  -0.31568
 Alpha  occ. eigenvalues --   -0.30682  -0.30355  -0.30192  -0.29656
 Alpha virt. eigenvalues --   -0.01670  -0.01068  -0.00213   0.00611   0.01607
 Alpha virt. eigenvalues --    0.02174   0.02968   0.03224   0.05104   0.08302
 Alpha virt. eigenvalues --    0.09403   0.12456   0.14379   0.15205   0.16173
 Alpha virt. eigenvalues --    0.16969   0.17952   0.18895   0.19548   0.23400
 Alpha virt. eigenvalues --    0.23804   0.24632   0.25110   0.26510   0.28796
 Alpha virt. eigenvalues --    0.30700   0.31947   0.33276   0.38366   0.38950
 Alpha virt. eigenvalues --    0.41318   0.55964   0.63050   0.73606   0.78861
 Alpha virt. eigenvalues --    0.80305   0.84253   0.86436   0.87371   0.89638
 Alpha virt. eigenvalues --    0.90602   0.91235   0.92779   0.94750   0.95499
 Alpha virt. eigenvalues --    0.96847   0.98140   1.00267   1.02265   1.03772
 Alpha virt. eigenvalues --    1.07507   1.07854   1.08791   1.10210   1.12583
 Alpha virt. eigenvalues --    1.14281   1.15303   1.19128   1.19701   1.21525
 Alpha virt. eigenvalues --    1.23887   1.25610   1.29257   1.38798   1.47561
 Alpha virt. eigenvalues --    1.48476   1.50428   1.51369   1.52742   1.56298
 Alpha virt. eigenvalues --    1.57636   1.58229   1.59805   1.60946   1.63197
 Alpha virt. eigenvalues --    1.63522   1.64678   1.68313   1.69102   1.70958
 Alpha virt. eigenvalues --    1.73157   1.75248   1.80090   1.80530   1.81722
 Alpha virt. eigenvalues --    1.82890   1.83743   1.85505   1.86770   1.88267
 Alpha virt. eigenvalues --    1.91130   1.92530   2.00641   2.08638   2.13503
 Alpha virt. eigenvalues --    2.35189   2.35623   2.36302   2.37653   2.38464
 Alpha virt. eigenvalues --    2.39950   2.43131   2.55830   2.59106   2.61844
 Alpha virt. eigenvalues --    2.62832   2.63855   2.64224   2.64388   2.64860
 Alpha virt. eigenvalues --    2.65179   2.65334   2.66161   2.66496   2.72124
 Alpha virt. eigenvalues --    2.77333   2.81882   3.40783   3.42215   3.42690
 Alpha virt. eigenvalues --    3.43992   3.45896   3.46392   4.35488
          Condensed to atoms (all electrons):
               1          2          3          4          5          6
     1  Si  11.570892   0.386970   0.394436   0.343367  -0.100678  -0.022131
     2  O    0.386970   7.951706  -0.020106  -0.010652   0.005626   0.304401
     3  O    0.394436  -0.020106   7.943585  -0.016943   0.000270  -0.001019
     4  O    0.343367  -0.010652  -0.016943   8.264020   0.193729  -0.000299
     5  Zr  -0.100678   0.005626   0.000270   0.193729   9.792155  -0.000909
     6  H   -0.022131   0.304401  -0.001019  -0.000299  -0.000909   0.379214
     7  H   -0.017492   0.000375   0.301733   0.001186  -0.003146  -0.000044
     8  O    0.257819  -0.018523  -0.012716  -0.038687   0.099802   0.000632
     9  H   -0.008910   0.001008  -0.000215   0.000715  -0.011574   0.000007
    10  O   -0.007340  -0.000000   0.000001   0.000153   0.227298  -0.000000
    11  H    0.000125  -0.000000   0.000000  -0.000078  -0.017238   0.000000
    12  O   -0.008777  -0.000000  -0.000000   0.000270   0.227437   0.000000
    13  H    0.000462  -0.000002   0.000000  -0.000019  -0.017377  -0.000000
    14  O   -0.000705   0.000000  -0.000000   0.000635   0.210271   0.000000
    15  H    0.000005  -0.000000   0.000000  -0.000061  -0.014283  -0.000000
               7          8          9         10         11         12
     1  Si  -0.017492   0.257819  -0.008910  -0.007340   0.000125  -0.008777
     2  O    0.000375  -0.018523   0.001008  -0.000000  -0.000000  -0.000000
     3  O    0.301733  -0.012716  -0.000215   0.000001   0.000000  -0.000000
     4  O    0.001186  -0.038687   0.000715   0.000153  -0.000078   0.000270
     5  Zr  -0.003146   0.099802  -0.011574   0.227298  -0.017238   0.227437
     6  H   -0.000044   0.000632   0.000007  -0.000000   0.000000   0.000000
     7  H    0.381869  -0.000164   0.000052  -0.000003  -0.000001  -0.000000
     8  O   -0.000164   8.071930   0.297051  -0.003947  -0.000742  -0.007349
     9  H    0.000052   0.297051   0.356584  -0.000159  -0.000030   0.002137
    10  O   -0.000003  -0.003947  -0.000159   8.175793   0.294965   0.000728
    11  H   -0.000001  -0.000742  -0.000030   0.294965   0.392812  -0.000304
    12  O   -0.000000  -0.007349   0.002137   0.000728  -0.000304   8.194440
    13  H    0.000000   0.000273  -0.000072  -0.000060  -0.000000   0.291517
    14  O   -0.000000  -0.000070   0.000007   0.000842   0.000014   0.000469
    15  H    0.000000  -0.000000  -0.000000  -0.000474   0.000001  -0.000097
              13         14         15
     1  Si   0.000462  -0.000705   0.000005
     2  O   -0.000002   0.000000  -0.000000
     3  O    0.000000  -0.000000   0.000000
     4  O   -0.000019   0.000635  -0.000061
     5  Zr  -0.017377   0.210271  -0.014283
     6  H   -0.000000   0.000000  -0.000000
     7  H    0.000000  -0.000000   0.000000
     8  O    0.000273  -0.000070  -0.000000
     9  H   -0.000072   0.000007  -0.000000
    10  O   -0.000060   0.000842  -0.000474
    11  H   -0.000000   0.000014   0.000001
    12  O    0.291517   0.000469  -0.000097
    13  H    0.398248  -0.001567   0.000001
    14  O   -0.001567   8.181640   0.299173
    15  H    0.000001   0.299173   0.383117
 Mulliken charges:
               1
     1  Si   1.211957
     2  O   -0.600802
     3  O   -0.589026
     4  O   -0.737337
     5  Zr   1.408619
     6  H    0.340149
     7  H    0.335637
     8  O   -0.645310
     9  H    0.363397
    10  O   -0.687796
    11  H    0.330477
    12  O   -0.700471
    13  H    0.328597
    14  O   -0.690709
    15  H    0.332619
 Sum of Mulliken charges =  -0.00000
 Mulliken charges with hydrogens summed into heavy atoms:
               1
     1  Si   1.211957
     2  O   -0.260654
     3  O   -0.253389
     4  O   -0.737337
     5  Zr   1.408619
     8  O   -0.281913
    10  O   -0.357319
    12  O   -0.371874
    14  O   -0.358090
 Electronic spatial extent (au):  <R**2>=           1878.9740
 Charge=             -0.0000 electrons
 Dipole moment (field-independent basis, Debye):
    X=              0.1036    Y=             -0.1237    Z=              0.5471  Tot=              0.5704
 Quadrupole moment (field-independent basis, Debye-Ang):
   XX=            -64.8055   YY=            -69.5653   ZZ=            -71.9050
   XY=              1.0486   XZ=              1.6215   YZ=              1.3306
 Traceless Quadrupole moment (field-independent basis, Debye-Ang):
   XX=              3.9531   YY=             -0.8067   ZZ=             -3.1464
   XY=              1.0486   XZ=              1.6215   YZ=              1.3306
 Octapole moment (field-independent basis, Debye-Ang**2):
  XXX=             37.9204  YYY=             -3.9637  ZZZ=             17.6617  XYY=              8.3875
  XXY=             12.8965  XXZ=            -29.4137  XZZ=              8.8905  YZZ=             -5.0098
  YYZ=             -1.0421  XYZ=              3.0596
 Hexadecapole moment (field-independent basis, Debye-Ang**3):
 XXXX=          -1327.2415 YYYY=           -375.3513 ZZZZ=           -317.9169 XXXY=            -70.3516
 XXXZ=             15.1189 YYYX=             76.3546 YYYZ=              7.7953 ZZZX=              1.3932
 ZZZY=            -12.4002 XXYY=           -282.4052 XXZZ=           -267.6723 YYZZ=           -110.9594
 XXYZ=             21.1453 YYXZ=              6.8526 ZZXY=            -33.0271
 N-N= 6.647338512892D+02 E-N=-3.365772562554D+03  KE= 8.297806590124D+02
 1\1\GINC-GRA785\FOpt\RB3LYP\Gen\H6O7Si1Zr1\SARASHS\24-Jun-2020\0\\#n B
 3LYP/GEN PSEUDO=READ Opt(modredundant)\\Title\\0,1\Si,-1.9127795505,-0
 .0436617919,-0.1350019716\O,-2.7753861263,1.331514926,-0.3821663271\O,
 -2.9747291688,-1.3001300327,-0.0905763142\O,-0.6265903818,-0.334639971
 ,-1.09166954\Zr,1.0822610728,-0.0165210507,0.0110547648\H,-3.576391966
 5,1.2376194784,-0.9083048308\H,-2.6081207327,-2.1438817924,-0.37871643
 09\O,-1.089916695,0.1984772779,1.3236591273\H,-1.2094446151,1.05703238
 04,1.7502331115\O,1.4791603371,-1.4870338517,1.2589987\H,1.2199760701,
 -1.6466501109,2.1721004405\O,1.2081992448,1.7964324131,0.8085349036\H,
 1.8748571248,2.4652638376,0.6154256815\O,2.5341948001,-0.0810684615,-1
 .2948854811\H,3.3168805871,-0.5705132506,-1.5593958334\\Version=ES64L-
 G16RevB.01\State=1-A\HF=-866.6889139\RMSD=3.451e-09\RMSF=5.889e-04\Dip
 ole=0.0364622,-0.0466344,0.2164831\Quadrupole=2.8851321,-0.5788545,-2.
 3062776,0.7771107,1.3033608,0.9914849\PG=C01 [X(H6O7Si1Zr1)]\\@


 THE ONLY EXISTING THINGS ARE ATOMS AND EMPTY SPACE;
 ALL ELSE IS MERE OPINION. -- DEMOCRITUS OF ABDERA D. 370 B.C.
 EXPERIMENTS ARE THE ONLY MEANS OF KNOWLEDGE AT OUR DISPOSAL
 THE REST IS POETRY, IMAGINATION. -- MAX PLANCK
 Job cpu time:       0 days  0 hours 24 minutes  5.9 seconds.
 Elapsed time:       0 days  0 hours  1 minutes 34.3 seconds.
 File lengths (MBytes):  RWF=     23 Int=      0 D2E=      0 Chk=      3 Scr=      1
 Normal termination of Gaussian 16 at Wed Jun 24 13:57:22 2020.
