 Entering Gaussian System, Link 0=g16
 Initial command:
 /opt/software/gaussian/g16.b01/l1.exe "/localscratch/sarashs.33453162.0/Gau-13517.inp" -scrdir="/localscratch/sarashs.33453162.0/"
 Entering Link 1 = /opt/software/gaussian/g16.b01/l1.exe PID=     13518.
  
 Copyright (c) 1988-2017, Gaussian, Inc.  All Rights Reserved.
  
 This is part of the Gaussian(R) 16 program.  It is based on
 the Gaussian(R) 09 system (copyright 2009, Gaussian, Inc.),
 the Gaussian(R) 03 system (copyright 2003, Gaussian, Inc.),
 the Gaussian(R) 98 system (copyright 1998, Gaussian, Inc.),
 the Gaussian(R) 94 system (copyright 1995, Gaussian, Inc.),
 the Gaussian 92(TM) system (copyright 1992, Gaussian, Inc.),
 the Gaussian 90(TM) system (copyright 1990, Gaussian, Inc.),
 the Gaussian 88(TM) system (copyright 1988, Gaussian, Inc.),
 the Gaussian 86(TM) system (copyright 1986, Carnegie Mellon
 University), and the Gaussian 82(TM) system (copyright 1983,
 Carnegie Mellon University). Gaussian is a federally registered
 trademark of Gaussian, Inc.
  
 This software contains proprietary and confidential information,
 including trade secrets, belonging to Gaussian, Inc.
  
 This software is provided under written license and may be
 used, copied, transmitted, or stored only in accord with that
 written license.
  
 The following legend is applicable only to US Government
 contracts under FAR:
  
                    RESTRICTED RIGHTS LEGEND
  
 Use, reproduction and disclosure by the US Government is
 subject to restrictions as set forth in subparagraphs (a)
 and (c) of the Commercial Computer Software - Restricted
 Rights clause in FAR 52.227-19.
  
 Gaussian, Inc.
 340 Quinnipiac St., Bldg. 40, Wallingford CT 06492
  
  
 ---------------------------------------------------------------
 Warning -- This program may not be used in any manner that
 competes with the business of Gaussian, Inc. or will provide
 assistance to any competitor of Gaussian, Inc.  The licensee
 of this program is prohibited from giving any competitor of
 Gaussian, Inc. access to this program.  By using this program,
 the user acknowledges that Gaussian, Inc. is engaged in the
 business of creating and licensing software in the field of
 computational chemistry and represents and warrants to the
 licensee that it is not a competitor of Gaussian, Inc. and that
 it will not use this program in any manner prohibited above.
 ---------------------------------------------------------------
  

 Cite this work as:
 Gaussian 16, Revision B.01,
 M. J. Frisch, G. W. Trucks, H. B. Schlegel, G. E. Scuseria, 
 M. A. Robb, J. R. Cheeseman, G. Scalmani, V. Barone, 
 G. A. Petersson, H. Nakatsuji, X. Li, M. Caricato, A. V. Marenich, 
 J. Bloino, B. G. Janesko, R. Gomperts, B. Mennucci, H. P. Hratchian, 
 J. V. Ortiz, A. F. Izmaylov, J. L. Sonnenberg, D. Williams-Young, 
 F. Ding, F. Lipparini, F. Egidi, J. Goings, B. Peng, A. Petrone, 
 T. Henderson, D. Ranasinghe, V. G. Zakrzewski, J. Gao, N. Rega, 
 G. Zheng, W. Liang, M. Hada, M. Ehara, K. Toyota, R. Fukuda, 
 J. Hasegawa, M. Ishida, T. Nakajima, Y. Honda, O. Kitao, H. Nakai, 
 T. Vreven, K. Throssell, J. A. Montgomery, Jr., J. E. Peralta, 
 F. Ogliaro, M. J. Bearpark, J. J. Heyd, E. N. Brothers, K. N. Kudin, 
 V. N. Staroverov, T. A. Keith, R. Kobayashi, J. Normand, 
 K. Raghavachari, A. P. Rendell, J. C. Burant, S. S. Iyengar, 
 J. Tomasi, M. Cossi, J. M. Millam, M. Klene, C. Adamo, R. Cammi, 
 J. W. Ochterski, R. L. Martin, K. Morokuma, O. Farkas, 
 J. B. Foresman, and D. J. Fox, Gaussian, Inc., Wallingford CT, 2016.
 
 ******************************************
 Gaussian 16:  ES64L-G16RevB.01 20-Dec-2017
                24-Jun-2020 
 ******************************************
 %NProcShared=16
 Will use up to   16 processors via shared memory.
 ------------------------------------------
 #n B3LYP/GEN PSEUDO=READ Opt(modredundant)
 ------------------------------------------
 1/18=120,19=15,26=3,38=1/1,3;
 2/9=110,12=2,17=6,18=5,40=1/2;
 3/5=7,11=2,16=1,17=8,25=1,30=1,71=1,74=-5/1,2,3;
 4//1;
 5/5=2,38=5/2;
 6/7=2,8=2,9=2,10=2,28=1/1;
 7//1,2,3,16;
 1/18=20,19=15,26=3/3(2);
 2/9=110/2;
 99//99;
 2/9=110/2;
 3/5=7,6=1,11=2,16=1,17=8,25=1,30=1,71=1,74=-5,82=7/1,2,3;
 4/5=5,16=3,69=1/1;
 5/5=2,38=5/2;
 7//1,2,3,16;
 1/18=20,19=15,26=3/3(-5);
 2/9=110/2;
 6/7=2,8=2,9=2,10=2,19=2,28=1/1;
 99/9=1/99;
 -----
 Title
 -----
 Symbolic Z-matrix:
 Charge =  0 Multiplicity = 1
 Si                   -1.90698  -0.04093  -0.13187 
 O                    -2.77661   1.33183  -0.36828 
 O                    -2.96472  -1.30138  -0.09409 
 O                    -0.62539  -0.3216   -1.09659 
 Zr                    1.21744  -0.03779  -0.24299 
 H                    -3.57833   1.23701  -0.89318 
 H                    -2.59505  -2.1428   -0.38501 
 O                    -1.07346   0.19403   1.32035 
 H                    -1.20745   1.04108   1.76425 
 O                     1.73822  -1.49714   0.97138 
 H                     1.5864   -1.64469   1.91028 
 O                     1.47804   1.77808   0.50878 
 H                     2.12093   2.43999   0.23071 
 O                     2.48613  -0.15809  -1.72552 
 H                     3.22479  -0.67983  -2.04943 
 
 The following ModRedundant input section has been read:
 A       1       4       5 F                                                   
 

 GradGradGradGradGradGradGradGradGradGradGradGradGradGradGradGradGradGrad
 Berny optimization.
 Initialization pass.
                           ----------------------------
                           !    Initial Parameters    !
                           ! (Angstroms and Degrees)  !
 --------------------------                            --------------------------
 ! Name  Definition              Value          Derivative Info.                !
 --------------------------------------------------------------------------------
 ! R1    R(1,2)                  1.6421         estimate D2E/DX2                !
 ! R2    R(1,3)                  1.6459         estimate D2E/DX2                !
 ! R3    R(1,4)                  1.6285         estimate D2E/DX2                !
 ! R4    R(1,5)                  3.1264         estimate D2E/DX2                !
 ! R5    R(1,8)                  1.6908         estimate D2E/DX2                !
 ! R6    R(2,6)                  0.9629         estimate D2E/DX2                !
 ! R7    R(3,7)                  0.964          estimate D2E/DX2                !
 ! R8    R(4,5)                  2.0507         estimate D2E/DX2                !
 ! R9    R(5,10)                 1.9687         estimate D2E/DX2                !
 ! R10   R(5,12)                 1.9825         estimate D2E/DX2                !
 ! R11   R(5,14)                 1.955          estimate D2E/DX2                !
 ! R12   R(8,9)                  0.9657         estimate D2E/DX2                !
 ! R13   R(10,11)                0.9625         estimate D2E/DX2                !
 ! R14   R(12,13)                0.9637         estimate D2E/DX2                !
 ! R15   R(14,15)                0.9606         estimate D2E/DX2                !
 ! A1    A(2,1,3)              107.6477         estimate D2E/DX2                !
 ! A2    A(2,1,4)              118.3958         estimate D2E/DX2                !
 ! A3    A(2,1,5)              121.5526         estimate D2E/DX2                !
 ! A4    A(2,1,8)              105.5776         estimate D2E/DX2                !
 ! A5    A(3,1,4)              112.7909         estimate D2E/DX2                !
 ! A6    A(3,1,5)              130.0781         estimate D2E/DX2                !
 ! A7    A(3,1,8)              113.7977         estimate D2E/DX2                !
 ! A8    A(4,1,8)               98.3257         estimate D2E/DX2                !
 ! A9    A(5,1,8)               62.4666         estimate D2E/DX2                !
 ! A10   A(1,2,6)              115.9167         estimate D2E/DX2                !
 ! A11   A(1,3,7)              114.5237         estimate D2E/DX2                !
 ! A12   A(1,4,5)              115.8987         Frozen                          !
 ! A13   A(1,5,10)             103.9869         estimate D2E/DX2                !
 ! A14   A(1,5,12)              96.8233         estimate D2E/DX2                !
 ! A15   A(1,5,14)             132.4879         estimate D2E/DX2                !
 ! A16   A(4,5,10)             113.0728         estimate D2E/DX2                !
 ! A17   A(4,5,12)             113.7491         estimate D2E/DX2                !
 ! A18   A(4,5,14)             105.011          estimate D2E/DX2                !
 ! A19   A(10,5,12)            114.2233         estimate D2E/DX2                !
 ! A20   A(10,5,14)            104.5067         estimate D2E/DX2                !
 ! A21   A(12,5,14)            104.988          estimate D2E/DX2                !
 ! A22   A(1,8,9)              116.6352         estimate D2E/DX2                !
 ! A23   A(5,10,11)            132.3501         estimate D2E/DX2                !
 ! A24   A(5,12,13)            127.3991         estimate D2E/DX2                !
 ! A25   A(5,14,15)            142.0128         estimate D2E/DX2                !
 ! D1    D(3,1,2,6)            -31.5445         estimate D2E/DX2                !
 ! D2    D(4,1,2,6)             97.8074         estimate D2E/DX2                !
 ! D3    D(5,1,2,6)            139.643          estimate D2E/DX2                !
 ! D4    D(8,1,2,6)           -153.4334         estimate D2E/DX2                !
 ! D5    D(2,1,3,7)            151.7162         estimate D2E/DX2                !
 ! D6    D(4,1,3,7)             19.2636         estimate D2E/DX2                !
 ! D7    D(5,1,3,7)            -18.46           estimate D2E/DX2                !
 ! D8    D(8,1,3,7)            -91.6497         estimate D2E/DX2                !
 ! D9    D(2,1,5,10)           150.8418         estimate D2E/DX2                !
 ! D10   D(2,1,5,12)            33.7351         estimate D2E/DX2                !
 ! D11   D(2,1,5,14)           -83.833          estimate D2E/DX2                !
 ! D12   D(3,1,5,10)           -40.1574         estimate D2E/DX2                !
 ! D13   D(3,1,5,12)          -157.2642         estimate D2E/DX2                !
 ! D14   D(3,1,5,14)            85.1677         estimate D2E/DX2                !
 ! D15   D(8,1,5,10)            58.8209         estimate D2E/DX2                !
 ! D16   D(8,1,5,12)           -58.2859         estimate D2E/DX2                !
 ! D17   D(8,1,5,14)          -175.854          estimate D2E/DX2                !
 ! D18   D(2,1,8,9)             -0.7356         estimate D2E/DX2                !
 ! D19   D(3,1,8,9)           -118.5698         estimate D2E/DX2                !
 ! D20   D(4,1,8,9)            121.931          estimate D2E/DX2                !
 ! D21   D(5,1,8,9)            117.1227         estimate D2E/DX2                !
 ! D22   D(1,5,10,11)          -60.3018         estimate D2E/DX2                !
 ! D23   D(4,5,10,11)          -88.2372         estimate D2E/DX2                !
 ! D24   D(12,5,10,11)          43.9582         estimate D2E/DX2                !
 ! D25   D(14,5,10,11)         158.1212         estimate D2E/DX2                !
 ! D26   D(1,5,12,13)         -140.1361         estimate D2E/DX2                !
 ! D27   D(4,5,12,13)         -116.9744         estimate D2E/DX2                !
 ! D28   D(10,5,12,13)         111.1551         estimate D2E/DX2                !
 ! D29   D(14,5,12,13)          -2.7237         estimate D2E/DX2                !
 ! D30   D(1,5,14,15)         -123.0562         estimate D2E/DX2                !
 ! D31   D(4,5,14,15)         -117.1593         estimate D2E/DX2                !
 ! D32   D(10,5,14,15)           2.0821         estimate D2E/DX2                !
 ! D33   D(12,5,14,15)         122.613          estimate D2E/DX2                !
 --------------------------------------------------------------------------------
 Trust Radius=3.00D-01 FncErr=1.00D-07 GrdErr=1.00D-06 EigMax=2.50D+02 EigMin=1.00D-04
 Number of steps in this run=     83 maximum allowed number of steps=    100.
 GradGradGradGradGradGradGradGradGradGradGradGradGradGradGradGradGradGrad

                          Input orientation:                          
 ---------------------------------------------------------------------
 Center     Atomic      Atomic             Coordinates (Angstroms)
 Number     Number       Type             X           Y           Z
 ---------------------------------------------------------------------
      1         14           0       -1.906980   -0.040930   -0.131870
      2          8           0       -2.776610    1.331830   -0.368280
      3          8           0       -2.964720   -1.301380   -0.094090
      4          8           0       -0.625390   -0.321600   -1.096590
      5         40           0        1.217440   -0.037790   -0.242990
      6          1           0       -3.578330    1.237010   -0.893180
      7          1           0       -2.595050   -2.142800   -0.385010
      8          8           0       -1.073460    0.194030    1.320350
      9          1           0       -1.207450    1.041080    1.764250
     10          8           0        1.738220   -1.497140    0.971380
     11          1           0        1.586400   -1.644690    1.910280
     12          8           0        1.478040    1.778080    0.508780
     13          1           0        2.120930    2.439990    0.230710
     14          8           0        2.486130   -0.158090   -1.725520
     15          1           0        3.224790   -0.679830   -2.049430
 ---------------------------------------------------------------------
                    Distance matrix (angstroms):
                    1          2          3          4          5
     1  Si   0.000000
     2  O    1.642138   0.000000
     3  O    1.645897   2.654121   0.000000
     4  O    1.628476   2.809273   2.727167   0.000000
     5  Zr   3.126397   4.224215   4.371418   2.050659   0.000000
     6  H    2.237439   0.962946   2.731023   3.345220   5.004725
     7  H    2.226068   3.479411   0.963991   2.775370   4.357329
     8  O    1.690830   2.654577   2.795310   2.511621   2.783163
     9  H    2.292457   2.663547   3.468219   3.221816   3.327621
    10  O    4.077400   5.493765   4.826095   3.353363   1.968657
    11  H    4.352715   5.752162   4.984782   3.960284   2.711979
    12  O    3.895843   4.366969   5.439177   3.377912   1.982537
    13  H    4.744522   5.056946   6.321960   4.114654   2.679567
    14  O    4.674705   5.635459   5.803485   3.178655   1.954979
    15  H    5.515459   6.549034   6.520714   3.982476   2.775769
                    6          7          8          9         10
     6  H    0.000000
     7  H    3.556430   0.000000
     8  O    3.501699   3.268679   0.000000
     9  H    3.566706   4.084341   0.965657   0.000000
    10  O    6.262417   4.586273   3.299603   3.968397   0.000000
    11  H    6.545076   4.795935   3.286908   3.878180   0.962473
    12  O    5.274953   5.723829   3.110950   3.054706   3.317945
    13  H    5.932272   6.604661   4.054106   3.922602   4.024432
    14  O    6.278278   5.617333   4.698084   5.221019   3.102530
    15  H    7.161957   6.227448   5.531184   6.095116   3.464560
                   11         12         13         14         15
    11  H    0.000000
    12  O    3.700175   0.000000
    13  H    4.448740   0.963720   0.000000
    14  O    4.029707   3.123635   3.272648   0.000000
    15  H    4.392560   3.954351   4.018809   0.960598   0.000000
 Stoichiometry    H6O7SiZr
 Framework group  C1[X(H6O7SiZr)]
 Deg. of freedom    39
 Full point group                 C1      NOp   1
 Largest Abelian subgroup         C1      NOp   1
 Largest concise Abelian subgroup C1      NOp   1
                         Standard orientation:                         
 ---------------------------------------------------------------------
 Center     Atomic      Atomic             Coordinates (Angstroms)
 Number     Number       Type             X           Y           Z
 ---------------------------------------------------------------------
      1         14           0       -1.968999   -0.042208   -0.120028
      2          8           0       -2.832926    1.321416   -0.421317
      3          8           0       -3.018074   -1.310385   -0.132003
      4          8           0       -0.630619   -0.322299   -1.004461
      5         40           0        1.156421   -0.015952   -0.046420
      6          1           0       -3.601499    1.215298   -0.991669
      7          1           0       -2.625833   -2.151702   -0.392022
      8          8           0       -1.224531    0.213290    1.376432
      9          1           0       -1.390599    1.063547    1.803021
     10          8           0        1.614897   -1.459365    1.211343
     11          1           0        1.408872   -1.598963    2.141085
     12          8           0        1.359100    1.809096    0.700960
     13          1           0        2.012558    2.473233    0.454646
     14          8           0        2.511402   -0.140813   -1.450122
     15          1           0        3.271641   -0.659938   -1.724521
 ---------------------------------------------------------------------
 Rotational constants (GHZ):           1.7522646           0.5803766           0.5587429
 General basis read from cards:  (5D, 7F)
 ======================================================================================================
                                       Pseudopotential Parameters
 ======================================================================================================
  Center     Atomic      Valence      Angular      Power
  Number     Number     Electrons     Momentum     of R      Exponent        Coefficient   SO-Coeffient
 ======================================================================================================
    1         14
                                   No pseudopotential on this center.
    2          8
                                   No pseudopotential on this center.
    3          8
                                   No pseudopotential on this center.
    4          8
                                   No pseudopotential on this center.
    5         40           12
                                      F and up 
                                                     0      645.9321873       -0.04258430    0.00000000
                                                     1      134.7547401      -20.22224090    0.00000000
                                                     2       42.3074619     -101.86951720    0.00000000
                                                     2       12.0003227      -41.61957840    0.00000000
                                                     2        4.1260454       -4.69861600    0.00000000
                                      S - F
                                                     0      117.6251862        2.79105590    0.00000000
                                                     1       22.9646089       41.94894590    0.00000000
                                                     2        4.5225298       67.72718660    0.00000000
                                      P - F
                                                     0       47.1953145        4.99111440    0.00000000
                                                     1       48.0356033       20.71931720    0.00000000
                                                     2       19.4541456      195.58677580    0.00000000
                                                     2        4.0512875       48.28771760    0.00000000
                                      D - F
                                                     0       79.9073983        3.00492260    0.00000000
                                                     1       45.8263798       25.93779890    0.00000000
                                                     2       26.9903522      125.12449340    0.00000000
                                                     2        9.6835718       70.76340220    0.00000000
                                                     2        2.7995666       15.04928220    0.00000000
    6          1
                                   No pseudopotential on this center.
    7          1
                                   No pseudopotential on this center.
    8          8
                                   No pseudopotential on this center.
    9          1
                                   No pseudopotential on this center.
   10          8
                                   No pseudopotential on this center.
   11          1
                                   No pseudopotential on this center.
   12          8
                                   No pseudopotential on this center.
   13          1
                                   No pseudopotential on this center.
   14          8
                                   No pseudopotential on this center.
   15          1
                                   No pseudopotential on this center.
 ======================================================================================================
 There are   178 symmetry adapted cartesian basis functions of A   symmetry.
 There are   168 symmetry adapted basis functions of A   symmetry.
   168 basis functions,   339 primitive gaussians,   178 cartesian basis functions
    44 alpha electrons       44 beta electrons
       nuclear repulsion energy       655.8606171008 Hartrees.
 NAtoms=   15 NActive=   15 NUniq=   15 SFac= 1.00D+00 NAtFMM=   60 NAOKFM=F Big=F
 Integral buffers will be    131072 words long.
 Raffenetti 2 integral format.
 Two-electron integral symmetry is turned on.
 One-electron integrals computed using PRISM.
   1 Symmetry operations used in ECPInt.
 ECPInt:  NShTT=    1770 NPrTT=   10201 LenC2=    1659 LenP2D=    6682.
 LDataN:  DoStor=T MaxTD1= 5 Len=  102
 NBasis=   168 RedAO= T EigKep=  9.83D-03  NBF=   168
 NBsUse=   168 1.00D-06 EigRej= -1.00D+00 NBFU=   168
 Defaulting to unpruned grid for atomic number  40.
 ExpMin= 2.43D-02 ExpMax= 1.61D+04 ExpMxC= 2.43D+03 IAcc=3 IRadAn=         5 AccDes= 0.00D+00
 Harris functional with IExCor=  402 and IRadAn=       5 diagonalized for initial guess.
 HarFok:  IExCor=  402 AccDes= 0.00D+00 IRadAn=         5 IDoV= 1 UseB2=F ITyADJ=14
 ICtDFT=  3500011 ScaDFX=  1.000000  1.000000  1.000000  1.000000
 Defaulting to unpruned grid for atomic number  40.
 FoFCou: FMM=F IPFlag=           0 FMFlag=      100000 FMFlg1=           0
         NFxFlg=           0 DoJE=T BraDBF=F KetDBF=T FulRan=T
         wScrn=  0.000000 ICntrl=       500 IOpCl=  0 I1Cent=   200000004 NGrid=           0
         NMat0=    1 NMatS0=      1 NMatT0=    0 NMatD0=    1 NMtDS0=    0 NMtDT0=    0
 Petite list used in FoFCou.
 Requested convergence on RMS density matrix=1.00D-08 within 128 cycles.
 Requested convergence on MAX density matrix=1.00D-06.
 Requested convergence on             energy=1.00D-06.
 No special actions if energy rises.
 Defaulting to unpruned grid for atomic number  40.
 Defaulting to unpruned grid for atomic number  40.
 Defaulting to unpruned grid for atomic number  40.
 Defaulting to unpruned grid for atomic number  40.
 Defaulting to unpruned grid for atomic number  40.
 Defaulting to unpruned grid for atomic number  40.
 Defaulting to unpruned grid for atomic number  40.
 Defaulting to unpruned grid for atomic number  40.
 Defaulting to unpruned grid for atomic number  40.
 Defaulting to unpruned grid for atomic number  40.
 Defaulting to unpruned grid for atomic number  40.
 Defaulting to unpruned grid for atomic number  40.
 Defaulting to unpruned grid for atomic number  40.
 Defaulting to unpruned grid for atomic number  40.
 Defaulting to unpruned grid for atomic number  40.
 Defaulting to unpruned grid for atomic number  40.
 SCF Done:  E(RB3LYP) =  -866.687705740     A.U. after   15 cycles
            NFock= 15  Conv=0.25D-08     -V/T= 2.0445

 **********************************************************************

            Population analysis using the SCF Density.

 **********************************************************************

 Orbital symmetries:
       Occupied  (A) (A) (A) (A) (A) (A) (A) (A) (A) (A) (A) (A)
                 (A) (A) (A) (A) (A) (A) (A) (A) (A) (A) (A) (A)
                 (A) (A) (A) (A) (A) (A) (A) (A) (A) (A) (A) (A)
                 (A) (A) (A) (A) (A) (A) (A) (A)
       Virtual   (A) (A) (A) (A) (A) (A) (A) (A) (A) (A) (A) (A)
                 (A) (A) (A) (A) (A) (A) (A) (A) (A) (A) (A) (A)
                 (A) (A) (A) (A) (A) (A) (A) (A) (A) (A) (A) (A)
                 (A) (A) (A) (A) (A) (A) (A) (A) (A) (A) (A) (A)
                 (A) (A) (A) (A) (A) (A) (A) (A) (A) (A) (A) (A)
                 (A) (A) (A) (A) (A) (A) (A) (A) (A) (A) (A) (A)
                 (A) (A) (A) (A) (A) (A) (A) (A) (A) (A) (A) (A)
                 (A) (A) (A) (A) (A) (A) (A) (A) (A) (A) (A) (A)
                 (A) (A) (A) (A) (A) (A) (A) (A) (A) (A) (A) (A)
                 (A) (A) (A) (A) (A) (A) (A) (A) (A) (A) (A) (A)
                 (A) (A) (A) (A)
 The electronic state is 1-A.
 Alpha  occ. eigenvalues --  -66.19457 -19.15660 -19.15201 -19.15120 -19.13801
 Alpha  occ. eigenvalues --  -19.13376 -19.13283 -19.12014  -5.33780  -3.69768
 Alpha  occ. eigenvalues --   -3.69712  -3.69649  -2.06017  -1.26658  -1.26588
 Alpha  occ. eigenvalues --   -1.26112  -1.03021  -1.00081  -0.99702  -0.95409
 Alpha  occ. eigenvalues --   -0.94694  -0.94179  -0.92789  -0.57496  -0.52582
 Alpha  occ. eigenvalues --   -0.51962  -0.48315  -0.47311  -0.46748  -0.43364
 Alpha  occ. eigenvalues --   -0.39130  -0.38356  -0.37558  -0.35825  -0.34811
 Alpha  occ. eigenvalues --   -0.34095  -0.33732  -0.33355  -0.32139  -0.31736
 Alpha  occ. eigenvalues --   -0.30760  -0.30697  -0.29845  -0.29726
 Alpha virt. eigenvalues --   -0.01903  -0.01249  -0.00084   0.00483   0.01583
 Alpha virt. eigenvalues --    0.02049   0.02640   0.03017   0.04085   0.08422
 Alpha virt. eigenvalues --    0.09392   0.11509   0.14570   0.15190   0.16117
 Alpha virt. eigenvalues --    0.17011   0.17953   0.19097   0.19692   0.23386
 Alpha virt. eigenvalues --    0.23716   0.24453   0.24908   0.26588   0.28595
 Alpha virt. eigenvalues --    0.29910   0.31798   0.33445   0.37854   0.39119
 Alpha virt. eigenvalues --    0.41939   0.56524   0.64224   0.72658   0.79009
 Alpha virt. eigenvalues --    0.80410   0.84158   0.86023   0.87073   0.89416
 Alpha virt. eigenvalues --    0.90899   0.91736   0.93211   0.95002   0.95707
 Alpha virt. eigenvalues --    0.97596   0.98722   0.99927   1.01357   1.04299
 Alpha virt. eigenvalues --    1.07288   1.07899   1.08085   1.09857   1.12516
 Alpha virt. eigenvalues --    1.13955   1.16460   1.18363   1.20027   1.21068
 Alpha virt. eigenvalues --    1.23905   1.25454   1.26871   1.37451   1.47134
 Alpha virt. eigenvalues --    1.48289   1.50273   1.52197   1.53515   1.57004
 Alpha virt. eigenvalues --    1.57581   1.58320   1.60732   1.61372   1.63001
 Alpha virt. eigenvalues --    1.63666   1.64298   1.66846   1.68968   1.70715
 Alpha virt. eigenvalues --    1.73039   1.75858   1.79974   1.80207   1.81469
 Alpha virt. eigenvalues --    1.82544   1.83420   1.85403   1.86600   1.88160
 Alpha virt. eigenvalues --    1.90871   1.92648   2.01029   2.08810   2.13684
 Alpha virt. eigenvalues --    2.35750   2.35881   2.36477   2.37093   2.38310
 Alpha virt. eigenvalues --    2.39399   2.43388   2.56200   2.59582   2.62253
 Alpha virt. eigenvalues --    2.62637   2.63962   2.64193   2.64414   2.64702
 Alpha virt. eigenvalues --    2.64852   2.65123   2.65752   2.66793   2.72697
 Alpha virt. eigenvalues --    2.77573   2.82359   3.40969   3.41855   3.42671
 Alpha virt. eigenvalues --    3.44058   3.45384   3.46390   4.04474
          Condensed to atoms (all electrons):
               1          2          3          4          5          6
     1  Si  11.549831   0.388098   0.395257   0.346702  -0.085069  -0.021952
     2  O    0.388098   7.952205  -0.020269  -0.010512   0.003796   0.304062
     3  O    0.395257  -0.020269   7.943703  -0.016897  -0.000913  -0.000977
     4  O    0.346702  -0.010512  -0.016897   8.273997   0.188933  -0.000300
     5  Zr  -0.085069   0.003796  -0.000913   0.188933   9.767821  -0.000929
     6  H   -0.021952   0.304062  -0.000977  -0.000300  -0.000929   0.380879
     7  H   -0.018442   0.000384   0.301810   0.001202  -0.002622  -0.000042
     8  O    0.265460  -0.018479  -0.012997  -0.039749   0.106956   0.000628
     9  H   -0.010930   0.000818  -0.000195   0.001015  -0.010356   0.000019
    10  O   -0.005396  -0.000000   0.000001   0.000262   0.223103  -0.000000
    11  H    0.000083  -0.000000   0.000000  -0.000074  -0.016491   0.000000
    12  O   -0.006015   0.000003  -0.000000   0.000392   0.224123   0.000000
    13  H    0.000297  -0.000001   0.000000  -0.000015  -0.017183  -0.000000
    14  O   -0.000192   0.000000  -0.000000   0.000647   0.211654   0.000000
    15  H   -0.000021   0.000000   0.000000  -0.000057  -0.014681  -0.000000
               7          8          9         10         11         12
     1  Si  -0.018442   0.265460  -0.010930  -0.005396   0.000083  -0.006015
     2  O    0.000384  -0.018479   0.000818  -0.000000  -0.000000   0.000003
     3  O    0.301810  -0.012997  -0.000195   0.000001   0.000000  -0.000000
     4  O    0.001202  -0.039749   0.001015   0.000262  -0.000074   0.000392
     5  Zr  -0.002622   0.106956  -0.010356   0.223103  -0.016491   0.224123
     6  H   -0.000042   0.000628   0.000019  -0.000000   0.000000   0.000000
     7  H    0.383092  -0.000222   0.000051  -0.000001  -0.000001  -0.000000
     8  O   -0.000222   8.042499   0.296917  -0.001970  -0.000414  -0.003147
     9  H    0.000051   0.296917   0.370358  -0.000055  -0.000007   0.000808
    10  O   -0.000001  -0.001970  -0.000055   8.177799   0.294859   0.000803
    11  H   -0.000001  -0.000414  -0.000007   0.294859   0.390569  -0.000298
    12  O   -0.000000  -0.003147   0.000808   0.000803  -0.000298   8.186997
    13  H   -0.000000   0.000104  -0.000038  -0.000056  -0.000000   0.292000
    14  O   -0.000000  -0.000018   0.000002   0.000829   0.000005   0.000521
    15  H    0.000000  -0.000001  -0.000000  -0.000550   0.000001  -0.000107
              13         14         15
     1  Si   0.000297  -0.000192  -0.000021
     2  O   -0.000001   0.000000   0.000000
     3  O    0.000000  -0.000000   0.000000
     4  O   -0.000015   0.000647  -0.000057
     5  Zr  -0.017183   0.211654  -0.014681
     6  H   -0.000000   0.000000  -0.000000
     7  H   -0.000000  -0.000000   0.000000
     8  O    0.000104  -0.000018  -0.000001
     9  H   -0.000038   0.000002  -0.000000
    10  O   -0.000056   0.000829  -0.000550
    11  H   -0.000000   0.000005   0.000001
    12  O    0.292000   0.000521  -0.000107
    13  H    0.396451  -0.001475  -0.000004
    14  O   -0.001475   8.177835   0.299466
    15  H   -0.000004   0.299466   0.382058
 Mulliken charges:
               1
     1  Si   1.202288
     2  O   -0.600106
     3  O   -0.588524
     4  O   -0.745547
     5  Zr   1.421858
     6  H    0.338610
     7  H    0.334791
     8  O   -0.635567
     9  H    0.351592
    10  O   -0.689626
    11  H    0.331768
    12  O   -0.696080
    13  H    0.329920
    14  O   -0.689274
    15  H    0.333895
 Sum of Mulliken charges =  -0.00000
 Mulliken charges with hydrogens summed into heavy atoms:
               1
     1  Si   1.202288
     2  O   -0.261496
     3  O   -0.253733
     4  O   -0.745547
     5  Zr   1.421858
     8  O   -0.283975
    10  O   -0.357858
    12  O   -0.366159
    14  O   -0.355378
 Electronic spatial extent (au):  <R**2>=           1958.2756
 Charge=             -0.0000 electrons
 Dipole moment (field-independent basis, Debye):
    X=              0.4797    Y=             -0.1692    Z=              0.3208  Tot=              0.6014
 Quadrupole moment (field-independent basis, Debye-Ang):
   XX=            -65.2484   YY=            -69.3336   ZZ=            -71.2125
   XY=              0.7032   XZ=              1.7511   YZ=              1.2834
 Traceless Quadrupole moment (field-independent basis, Debye-Ang):
   XX=              3.3497   YY=             -0.7354   ZZ=             -2.6143
   XY=              0.7032   XZ=              1.7511   YZ=              1.2834
 Octapole moment (field-independent basis, Debye-Ang**2):
  XXX=             43.2819  YYY=             -3.9480  ZZZ=             16.9503  XYY=             10.2061
  XXY=             13.1226  XXZ=            -29.6709  XZZ=              8.1140  YZZ=             -4.7158
  YYZ=             -2.0774  XYZ=              2.2319
 Hexadecapole moment (field-independent basis, Debye-Ang**3):
 XXXX=          -1441.0112 YYYY=           -372.1392 ZZZZ=           -319.8461 XXXY=            -69.4098
 XXXZ=             17.3449 YYYX=             77.3641 YYYZ=              7.8126 ZZZX=              7.0991
 ZZZY=            -11.2935 XXYY=           -296.1439 XXZZ=           -277.4296 YYZZ=           -111.5617
 XXYZ=             20.3377 YYXZ=              1.6485 ZZXY=            -39.2610
 N-N= 6.558606171008D+02 E-N=-3.348124700082D+03  KE= 8.297290610047D+02
   1 Symmetry operations used in ECPInt.
 ECPInt:  NShTT=    1770 NPrTT=   10201 LenC2=    1659 LenP2D=    6682.
 LDataN:  DoStor=T MaxTD1= 6 Len=  172
 Calling FoFJK, ICntrl=      2127 FMM=F ISym2X=0 I1Cent= 0 IOpClX= 0 NMat=1 NMatS=1 NMatT=0.
 Defaulting to unpruned grid for atomic number  40.
 Defaulting to unpruned grid for atomic number  40.
 Defaulting to unpruned grid for atomic number  40.
 Defaulting to unpruned grid for atomic number  40.
 Defaulting to unpruned grid for atomic number  40.
 Defaulting to unpruned grid for atomic number  40.
 Defaulting to unpruned grid for atomic number  40.
 Defaulting to unpruned grid for atomic number  40.
 Defaulting to unpruned grid for atomic number  40.
 Defaulting to unpruned grid for atomic number  40.
 Defaulting to unpruned grid for atomic number  40.
 Defaulting to unpruned grid for atomic number  40.
 Defaulting to unpruned grid for atomic number  40.
 Defaulting to unpruned grid for atomic number  40.
 Defaulting to unpruned grid for atomic number  40.
 Defaulting to unpruned grid for atomic number  40.
 ***** Axes restored to original set *****
 -------------------------------------------------------------------
 Center     Atomic                   Forces (Hartrees/Bohr)
 Number     Number              X              Y              Z
 -------------------------------------------------------------------
      1       14           0.007738768    0.001475488    0.006577334
      2        8          -0.000507216    0.000389629   -0.000941912
      3        8          -0.000177277   -0.000468148   -0.000735210
      4        8           0.002939306   -0.000698073   -0.003620481
      5       40          -0.006200825    0.000728506   -0.002775971
      6        1          -0.000004110    0.000060438   -0.000021373
      7        1          -0.000032957    0.000071743    0.000078084
      8        8           0.000850633    0.000855118   -0.000551548
      9        1          -0.001018493   -0.001053971   -0.000359158
     10        8          -0.001521204    0.001503571    0.000711074
     11        1           0.000341173   -0.000506139    0.000329014
     12        8          -0.000901976   -0.003018552   -0.000439014
     13        1          -0.000244286    0.000344944    0.000354479
     14        8          -0.001259978    0.000629110    0.001028168
     15        1          -0.000001558   -0.000313665    0.000366512
 -------------------------------------------------------------------
 Cartesian Forces:  Max     0.007738768 RMS     0.002106315

 GradGradGradGradGradGradGradGradGradGradGradGradGradGradGradGradGradGrad
 Berny optimization.
 FormGI is forming the generalized inverse of G from B-inverse, IUseBI=4.
 Internal  Forces:  Max     0.007068536 RMS     0.001300591
 Search for a local minimum.
 Step number   1 out of a maximum of   83
 All quantities printed in internal units (Hartrees-Bohrs-Radians)
 Mixed Optimization -- RFO/linear search
 Second derivative matrix not updated -- first step.
 ITU=  0
     Eigenvalues ---    0.00230   0.00230   0.00230   0.00529   0.03138
     Eigenvalues ---    0.03732   0.03782   0.04604   0.04983   0.08178
     Eigenvalues ---    0.08232   0.09909   0.12915   0.15111   0.15332
     Eigenvalues ---    0.16000   0.16000   0.16000   0.16000   0.16000
     Eigenvalues ---    0.16000   0.18469   0.18935   0.18951   0.19683
     Eigenvalues ---    0.20441   0.21568   0.22739   0.35257   0.37017
     Eigenvalues ---    0.43277   0.43863   0.54274   0.54624   0.54681
     Eigenvalues ---    0.54844   0.54945   0.553451000.000001000.00000
     Eigenvalues --- 1000.000001000.000001000.000001000.000001000.00000
     Eigenvalues --- 1000.000001000.000001000.000001000.000001000.00000
     Eigenvalues --- 1000.000001000.000001000.000001000.000001000.00000
     Eigenvalues --- 1000.000001000.000001000.000001000.000001000.00000
     Eigenvalues --- 1000.000001000.000001000.000001000.000001000.00000
     Eigenvalues --- 1000.000001000.000001000.000001000.000001000.00000
     Eigenvalues --- 1000.000001000.000001000.00000
 RFO step:  Lambda=-6.96100789D-04 EMin= 2.30000000D-03
 Linear search not attempted -- first point.
 Iteration  1 RMS(Cart)=  0.01485904 RMS(Int)=  0.00006810
 Iteration  2 RMS(Cart)=  0.00007743 RMS(Int)=  0.00003139
 Iteration  3 RMS(Cart)=  0.00000000 RMS(Int)=  0.00003139
 Iteration  1 RMS(Cart)=  0.00000266 RMS(Int)=  0.00000219
 Iteration  2 RMS(Cart)=  0.00000186 RMS(Int)=  0.00000240
 Iteration  3 RMS(Cart)=  0.00000130 RMS(Int)=  0.00000277
 Iteration  4 RMS(Cart)=  0.00000091 RMS(Int)=  0.00000310
 Variable       Old X    -DE/DX   Delta X   Delta X   Delta X     New X
                                 (Linear)    (Quad)   (Total)
    R1        3.10319   0.00078   0.00000   0.00179   0.00179   3.10498
    R2        3.11029   0.00042   0.00000   0.00098   0.00098   3.11127
    R3        3.07737   0.00245   0.00000  -0.00478  -0.00479   3.07258
    R4        5.90803  -0.00707   0.00000  -0.04441  -0.04440   5.86363
    R5        3.19520  -0.00089   0.00000  -0.00241  -0.00241   3.19280
    R6        1.81970   0.00001   0.00000   0.00002   0.00002   1.81972
    R7        1.82168  -0.00010   0.00000  -0.00018  -0.00018   1.82150
    R8        3.87518  -0.00242   0.00000  -0.04590  -0.04590   3.82928
    R9        3.72022  -0.00041   0.00000  -0.00208  -0.00208   3.71815
   R10        3.74645  -0.00263   0.00000  -0.01383  -0.01383   3.73262
   R11        3.69437  -0.00190   0.00000  -0.00924  -0.00924   3.68513
   R12        1.82483  -0.00095   0.00000  -0.00174  -0.00174   1.82308
   R13        1.81881   0.00035   0.00000   0.00063   0.00063   1.81944
   R14        1.82117  -0.00003   0.00000  -0.00005  -0.00005   1.82111
   R15        1.81527   0.00005   0.00000   0.00008   0.00008   1.81535
    A1        1.87881  -0.00018   0.00000  -0.00147  -0.00150   1.87731
    A2        2.06640  -0.00085   0.00000  -0.00505  -0.00503   2.06136
    A3        2.12149   0.00048   0.00000   0.00313   0.00310   2.12459
    A4        1.84268   0.00051   0.00000   0.00412   0.00410   1.84677
    A5        1.96857  -0.00081   0.00000  -0.00202  -0.00203   1.96654
    A6        2.27029  -0.00032   0.00000  -0.00383  -0.00386   2.26643
    A7        1.98615   0.00033   0.00000   0.00439   0.00441   1.99055
    A8        1.71611   0.00125   0.00000   0.00132   0.00130   1.71741
    A9        1.09025  -0.00060   0.00000   0.00384   0.00386   1.09411
   A10        2.02313   0.00010   0.00000   0.00064   0.00064   2.02377
   A11        1.99882   0.00002   0.00000   0.00011   0.00011   1.99893
   A12        2.02281  -0.00380   0.00000   0.00000  -0.00001   2.02281
   A13        1.81491  -0.00151   0.00000  -0.00923  -0.00932   1.80559
   A14        1.68988  -0.00140   0.00000  -0.00839  -0.00847   1.68141
   A15        2.31235   0.00158   0.00000   0.00679   0.00681   2.31916
   A16        1.97349   0.00007   0.00000  -0.00068  -0.00073   1.97276
   A17        1.98530  -0.00034   0.00000  -0.00469  -0.00475   1.98055
   A18        1.83279  -0.00053   0.00000   0.00327   0.00326   1.83605
   A19        1.99357  -0.00065   0.00000  -0.01199  -0.01211   1.98146
   A20        1.82399   0.00078   0.00000   0.00928   0.00932   1.83330
   A21        1.83239   0.00087   0.00000   0.00886   0.00889   1.84128
   A22        2.03567  -0.00109   0.00000  -0.00677  -0.00677   2.02890
   A23        2.30995   0.00107   0.00000   0.00667   0.00667   2.31661
   A24        2.22353   0.00100   0.00000   0.00621   0.00621   2.22975
   A25        2.47859  -0.00087   0.00000  -0.00543  -0.00543   2.47316
    D1       -0.55056   0.00069   0.00000   0.00690   0.00690  -0.54365
    D2        1.70706  -0.00136   0.00000  -0.00169  -0.00165   1.70541
    D3        2.43723   0.00052   0.00000  -0.00664  -0.00668   2.43055
    D4       -2.67792   0.00011   0.00000   0.00026   0.00026  -2.67766
    D5        2.64795  -0.00067   0.00000  -0.00712  -0.00709   2.64085
    D6        0.33621   0.00130   0.00000   0.00265   0.00263   0.33884
    D7       -0.32219  -0.00058   0.00000   0.00711   0.00711  -0.31508
    D8       -1.59959   0.00003   0.00000  -0.00045  -0.00045  -1.60004
    D9        2.63269  -0.00072   0.00000  -0.00027  -0.00023   2.63246
   D10        0.58879   0.00085   0.00000   0.01776   0.01775   0.60654
   D11       -1.46316   0.00012   0.00000   0.00961   0.00962  -1.45354
   D12       -0.70088  -0.00089   0.00000  -0.01671  -0.01668  -0.71755
   D13       -2.74478   0.00067   0.00000   0.00133   0.00130  -2.74347
   D14        1.48646  -0.00006   0.00000  -0.00683  -0.00683   1.47963
   D15        1.02662  -0.00077   0.00000  -0.00624  -0.00622   1.02040
   D16       -1.01728   0.00080   0.00000   0.01179   0.01176  -1.00552
   D17       -3.06923   0.00006   0.00000   0.00364   0.00363  -3.06560
   D18       -0.01284   0.00047   0.00000   0.01410   0.01409   0.00125
   D19       -2.06943   0.00018   0.00000   0.01082   0.01083  -2.05861
   D20        2.12810   0.00024   0.00000   0.01057   0.01058   2.13867
   D21        2.04418   0.00076   0.00000   0.01596   0.01596   2.06013
   D22       -1.05247   0.00139   0.00000  -0.00637  -0.00643  -1.05889
   D23       -1.54003  -0.00021   0.00000  -0.00604  -0.00603  -1.54606
   D24        0.76722  -0.00127   0.00000  -0.02541  -0.02533   0.74188
   D25        2.75974  -0.00007   0.00000  -0.01495  -0.01497   2.74476
   D26       -2.44584  -0.00143   0.00000   0.00026   0.00030  -2.44554
   D27       -2.04159   0.00030   0.00000   0.00077   0.00081  -2.04078
   D28        1.94002   0.00118   0.00000   0.01838   0.01830   1.95832
   D29       -0.04754   0.00003   0.00000   0.00772   0.00772  -0.03981
   D30       -2.14774   0.00003   0.00000   0.00050   0.00051  -2.14723
   D31       -2.04482  -0.00015   0.00000  -0.00112  -0.00113  -2.04595
   D32        0.03634   0.00005   0.00000   0.00377   0.00379   0.04013
   D33        2.14000   0.00007   0.00000  -0.00144  -0.00145   2.13855
         Item               Value     Threshold  Converged?
 Maximum Force            0.004783     0.000450     NO 
 RMS     Force            0.001023     0.000300     NO 
 Maximum Displacement     0.045988     0.001800     NO 
 RMS     Displacement     0.014902     0.001200     NO 
 Predicted change in Energy=-3.497188D-04
 GradGradGradGradGradGradGradGradGradGradGradGradGradGradGradGradGradGrad

                          Input orientation:                          
 ---------------------------------------------------------------------
 Center     Atomic      Atomic             Coordinates (Angstroms)
 Number     Number       Type             X           Y           Z
 ---------------------------------------------------------------------
      1         14           0       -1.891294   -0.038059   -0.126806
      2          8           0       -2.765069    1.332191   -0.368997
      3          8           0       -2.946991   -1.301016   -0.093274
      4          8           0       -0.614719   -0.313750   -1.095324
      5         40           0        1.208948   -0.040602   -0.255204
      6          1           0       -3.567125    1.233518   -0.892688
      7          1           0       -2.575991   -2.140627   -0.387393
      8          8           0       -1.055197    0.199137    1.322082
      9          1           0       -1.201861    1.042970    1.766096
     10          8           0        1.716685   -1.492784    0.971440
     11          1           0        1.570462   -1.634195    1.912511
     12          8           0        1.460382    1.762639    0.510683
     13          1           0        2.096594    2.434574    0.241534
     14          8           0        2.475697   -0.160320   -1.732991
     15          1           0        3.213439   -0.685907   -2.052878
 ---------------------------------------------------------------------
                    Distance matrix (angstroms):
                    1          2          3          4          5
     1  Si   0.000000
     2  O    1.643083   0.000000
     3  O    1.646414   2.653845   0.000000
     4  O    1.625939   2.803690   2.723655   0.000000
     5  Zr   3.102901   4.205986   4.345882   2.026369   0.000000
     6  H    2.238726   0.962956   2.729009   3.339432   4.984039
     7  H    2.226546   3.478010   0.963895   2.772226   4.330513
     8  O    1.689555   2.658424   2.798674   2.510165   2.769776
     9  H    2.286267   2.661933   3.463669   3.220737   3.327429
    10  O    4.042262   5.464739   4.787512   3.331228   1.967558
    11  H    4.323219   5.727264   4.953945   3.945334   2.714631
    12  O    3.857803   4.337460   5.401452   3.346146   1.975217
    13  H    4.706680   5.022326   6.285259   4.085546   2.676034
    14  O    4.654609   5.617267   5.778875   3.159244   1.950087
    15  H    5.494339   6.530752   6.493790   3.963609   2.768760
                    6          7          8          9         10
     6  H    0.000000
     7  H    3.552820   0.000000
     8  O    3.504987   3.272555   0.000000
     9  H    3.563694   4.081793   0.964734   0.000000
    10  O    6.231079   4.548978   3.266325   3.947080   0.000000
    11  H    6.518261   4.768554   3.256348   3.856738   0.962805
    12  O    5.246452   5.686329   3.071001   3.030103   3.297842
    13  H    5.899721   6.569708   4.012300   3.891100   4.012634
    14  O    6.258162   5.590331   4.682936   5.216890   3.108939
    15  H    7.141868   6.197383   5.513158   6.088386   3.469556
                   11         12         13         14         15
    11  H    0.000000
    12  O    3.676373   0.000000
    13  H    4.429883   0.963692   0.000000
    14  O    4.035027   3.124533   3.282672   0.000000
    15  H    4.395785   3.954798   4.031013   0.960642   0.000000
 Stoichiometry    H6O7SiZr
 Framework group  C1[X(H6O7SiZr)]
 Deg. of freedom    39
 Full point group                 C1      NOp   1
 Largest Abelian subgroup         C1      NOp   1
 Largest concise Abelian subgroup C1      NOp   1
                         Standard orientation:                         
 ---------------------------------------------------------------------
 Center     Atomic      Atomic             Coordinates (Angstroms)
 Number     Number       Type             X           Y           Z
 ---------------------------------------------------------------------
      1         14           0       -1.952789   -0.043049   -0.117597
      2          8           0       -2.822191    1.315055   -0.432899
      3          8           0       -2.996808   -1.316022   -0.133172
      4          8           0       -0.615301   -0.318506   -1.000168
      5         40           0        1.149280   -0.016064   -0.050983
      6          1           0       -3.588755    1.201481   -1.004532
      7          1           0       -2.600304   -2.155628   -0.391903
      8          8           0       -1.211757    0.221459    1.377563
      9          1           0       -1.393852    1.069502    1.799911
     10          8           0        1.592186   -1.446912    1.224866
     11          1           0        1.388338   -1.577481    2.156741
     12          8           0        1.335371    1.799469    0.704459
     13          1           0        1.981035    2.474199    0.466637
     14          8           0        2.507572   -0.142321   -1.444518
     15          1           0        3.268800   -0.664590   -1.710224
 ---------------------------------------------------------------------
 Rotational constants (GHZ):           1.7566044           0.5867804           0.5657409
 Basis read from rwf:  (5D, 7F)
 Pseudo-potential data read from rwf file.
 There are   178 symmetry adapted cartesian basis functions of A   symmetry.
 There are   168 symmetry adapted basis functions of A   symmetry.
   168 basis functions,   339 primitive gaussians,   178 cartesian basis functions
    44 alpha electrons       44 beta electrons
       nuclear repulsion energy       658.0999253451 Hartrees.
 NAtoms=   15 NActive=   15 NUniq=   15 SFac= 1.00D+00 NAtFMM=   60 NAOKFM=F Big=F
 Integral buffers will be    131072 words long.
 Raffenetti 2 integral format.
 Two-electron integral symmetry is turned on.
 One-electron integrals computed using PRISM.
   1 Symmetry operations used in ECPInt.
 ECPInt:  NShTT=    1770 NPrTT=   10201 LenC2=    1660 LenP2D=    6693.
 LDataN:  DoStor=T MaxTD1= 5 Len=  102
 NBasis=   168 RedAO= T EigKep=  9.53D-03  NBF=   168
 NBsUse=   168 1.00D-06 EigRej= -1.00D+00 NBFU=   168
 Defaulting to unpruned grid for atomic number  40.
 Initial guess from the checkpoint file:  "/localscratch/sarashs.33453162.0/Gau-13518.chk"
 B after Tr=    -0.000000   -0.000000   -0.000000
         Rot=    0.999998    0.001607    0.000989   -0.000623 Ang=   0.23 deg.
 ExpMin= 2.43D-02 ExpMax= 1.61D+04 ExpMxC= 2.43D+03 IAcc=3 IRadAn=         5 AccDes= 0.00D+00
 Harris functional with IExCor=  402 and IRadAn=       5 diagonalized for initial guess.
 HarFok:  IExCor=  402 AccDes= 0.00D+00 IRadAn=         5 IDoV= 1 UseB2=F ITyADJ=14
 ICtDFT=  3500011 ScaDFX=  1.000000  1.000000  1.000000  1.000000
 Defaulting to unpruned grid for atomic number  40.
 FoFCou: FMM=F IPFlag=           0 FMFlag=      100000 FMFlg1=           0
         NFxFlg=           0 DoJE=T BraDBF=F KetDBF=T FulRan=T
         wScrn=  0.000000 ICntrl=       500 IOpCl=  0 I1Cent=   200000004 NGrid=           0
         NMat0=    1 NMatS0=      1 NMatT0=    0 NMatD0=    1 NMtDS0=    0 NMtDT0=    0
 Petite list used in FoFCou.
 Requested convergence on RMS density matrix=1.00D-08 within 128 cycles.
 Requested convergence on MAX density matrix=1.00D-06.
 Requested convergence on             energy=1.00D-06.
 No special actions if energy rises.
 Defaulting to unpruned grid for atomic number  40.
 Defaulting to unpruned grid for atomic number  40.
 Defaulting to unpruned grid for atomic number  40.
 Defaulting to unpruned grid for atomic number  40.
 Defaulting to unpruned grid for atomic number  40.
 Defaulting to unpruned grid for atomic number  40.
 Defaulting to unpruned grid for atomic number  40.
 Defaulting to unpruned grid for atomic number  40.
 Defaulting to unpruned grid for atomic number  40.
 Defaulting to unpruned grid for atomic number  40.
 Defaulting to unpruned grid for atomic number  40.
 Defaulting to unpruned grid for atomic number  40.
 Defaulting to unpruned grid for atomic number  40.
 Defaulting to unpruned grid for atomic number  40.
 Defaulting to unpruned grid for atomic number  40.
 Defaulting to unpruned grid for atomic number  40.
 SCF Done:  E(RB3LYP) =  -866.688072372     A.U. after   10 cycles
            NFock= 10  Conv=0.42D-08     -V/T= 2.0445
   1 Symmetry operations used in ECPInt.
 ECPInt:  NShTT=    1770 NPrTT=   10201 LenC2=    1660 LenP2D=    6693.
 LDataN:  DoStor=T MaxTD1= 6 Len=  172
 Calling FoFJK, ICntrl=      2127 FMM=F ISym2X=0 I1Cent= 0 IOpClX= 0 NMat=1 NMatS=1 NMatT=0.
 Defaulting to unpruned grid for atomic number  40.
 Defaulting to unpruned grid for atomic number  40.
 Defaulting to unpruned grid for atomic number  40.
 Defaulting to unpruned grid for atomic number  40.
 Defaulting to unpruned grid for atomic number  40.
 Defaulting to unpruned grid for atomic number  40.
 Defaulting to unpruned grid for atomic number  40.
 Defaulting to unpruned grid for atomic number  40.
 Defaulting to unpruned grid for atomic number  40.
 Defaulting to unpruned grid for atomic number  40.
 Defaulting to unpruned grid for atomic number  40.
 Defaulting to unpruned grid for atomic number  40.
 Defaulting to unpruned grid for atomic number  40.
 Defaulting to unpruned grid for atomic number  40.
 Defaulting to unpruned grid for atomic number  40.
 Defaulting to unpruned grid for atomic number  40.
 ***** Axes restored to original set *****
 -------------------------------------------------------------------
 Center     Atomic                   Forces (Hartrees/Bohr)
 Number     Number              X              Y              Z
 -------------------------------------------------------------------
      1       14           0.003753531    0.002113300    0.007021316
      2        8           0.000008034    0.000005631   -0.000437212
      3        8           0.000129431   -0.000142276   -0.000504508
      4        8          -0.002452417   -0.002320612   -0.007823698
      5       40          -0.000758949   -0.000347964    0.002448347
      6        1           0.000038569   -0.000057687    0.000026453
      7        1          -0.000002873   -0.000067616    0.000102726
      8        8          -0.000557210   -0.000180133   -0.001497500
      9        1          -0.000514674   -0.000174206    0.000285104
     10        8          -0.000956019    0.000039578    0.001302477
     11        1           0.000269396   -0.000245739   -0.000257404
     12        8          -0.000040938    0.001060623    0.000330727
     13        1          -0.000233610    0.000339973    0.000426535
     14        8           0.001270093    0.000088048   -0.001634967
     15        1           0.000047638   -0.000110920    0.000211604
 -------------------------------------------------------------------
 Cartesian Forces:  Max     0.007823698 RMS     0.001881921

 GradGradGradGradGradGradGradGradGradGradGradGradGradGradGradGradGradGrad
 Berny optimization.
 Using GEDIIS/GDIIS optimizer.
 FormGI is forming the generalized inverse of G from B-inverse, IUseBI=4.
 Internal  Forces:  Max     0.004912307 RMS     0.001163499
 Search for a local minimum.
 Step number   2 out of a maximum of   83
 All quantities printed in internal units (Hartrees-Bohrs-Radians)
 Mixed Optimization -- En-DIIS/RFO-DIIS
 Update second derivatives using D2CorX and points    1    2
 DE= -3.67D-04 DEPred=-3.50D-04 R= 1.05D+00
 TightC=F SS=  1.41D+00  RLast= 9.15D-02 DXNew= 5.0454D-01 2.7465D-01
 Trust test= 1.05D+00 RLast= 9.15D-02 DXMaxT set to 3.00D-01
 ITU=  1  0
 Use linear search instead of GDIIS.
     Eigenvalues ---    0.00229   0.00230   0.00230   0.00529   0.02958
     Eigenvalues ---    0.03730   0.03782   0.04301   0.04889   0.07012
     Eigenvalues ---    0.08233   0.10775   0.12916   0.15034   0.15132
     Eigenvalues ---    0.15747   0.16000   0.16000   0.16000   0.16000
     Eigenvalues ---    0.16073   0.18393   0.18798   0.19471   0.19793
     Eigenvalues ---    0.21541   0.22568   0.24641   0.35205   0.37232
     Eigenvalues ---    0.43273   0.43886   0.54307   0.54625   0.54681
     Eigenvalues ---    0.54845   0.54996   0.553451000.000001000.00000
     Eigenvalues --- 1000.000001000.000001000.000001000.000001000.00000
     Eigenvalues --- 1000.000001000.000001000.000001000.000001000.00000
     Eigenvalues --- 1000.000001000.000001000.000001000.000001000.00000
     Eigenvalues --- 1000.000001000.000001000.000001000.000001000.00000
     Eigenvalues --- 1000.000001000.000001000.000001000.000001000.00000
     Eigenvalues --- 1000.000001000.000001000.000001000.000001000.00000
     Eigenvalues --- 1000.000001000.000001000.00000
 RFO step:  Lambda=-1.48457805D-04 EMin= 2.29240178D-03
 Quartic linear search produced a step of  0.04035.
 Iteration  1 RMS(Cart)=  0.01159127 RMS(Int)=  0.00006419
 Iteration  2 RMS(Cart)=  0.00008452 RMS(Int)=  0.00002044
 Iteration  3 RMS(Cart)=  0.00000000 RMS(Int)=  0.00002044
 Iteration  1 RMS(Cart)=  0.00000194 RMS(Int)=  0.00000158
 Iteration  2 RMS(Cart)=  0.00000135 RMS(Int)=  0.00000174
 Iteration  3 RMS(Cart)=  0.00000094 RMS(Int)=  0.00000201
 Variable       Old X    -DE/DX   Delta X   Delta X   Delta X     New X
                                 (Linear)    (Quad)   (Total)
    R1        3.10498  -0.00001   0.00007   0.00029   0.00036   3.10534
    R2        3.11127   0.00007   0.00004   0.00034   0.00038   3.11166
    R3        3.07258   0.00323  -0.00019   0.00019   0.00000   3.07258
    R4        5.86363  -0.00299  -0.00179  -0.00093  -0.00272   5.86091
    R5        3.19280  -0.00162  -0.00010  -0.00497  -0.00507   3.18773
    R6        1.81972  -0.00004   0.00000  -0.00007  -0.00007   1.81965
    R7        1.82150   0.00003  -0.00001   0.00002   0.00001   1.82151
    R8        3.82928   0.00370  -0.00185  -0.00123  -0.00309   3.82620
    R9        3.71815   0.00063  -0.00008   0.00294   0.00286   3.72100
   R10        3.73262   0.00154  -0.00056   0.00601   0.00545   3.73807
   R11        3.68513   0.00194  -0.00037   0.00822   0.00784   3.69297
   R12        1.82308   0.00006  -0.00007  -0.00020  -0.00027   1.82282
   R13        1.81944  -0.00026   0.00003  -0.00037  -0.00035   1.81909
   R14        1.82111  -0.00004  -0.00000  -0.00008  -0.00008   1.82104
   R15        1.81535   0.00003   0.00000   0.00007   0.00007   1.81542
    A1        1.87731  -0.00001  -0.00006  -0.00068  -0.00076   1.87654
    A2        2.06136  -0.00091  -0.00020  -0.00266  -0.00287   2.05849
    A3        2.12459   0.00008   0.00013   0.00060   0.00070   2.12529
    A4        1.84677   0.00034   0.00017   0.00394   0.00411   1.85088
    A5        1.96654  -0.00139  -0.00008  -0.00442  -0.00451   1.96204
    A6        2.26643  -0.00002  -0.00016  -0.00168  -0.00185   2.26458
    A7        1.99055   0.00015   0.00018   0.00085   0.00104   1.99159
    A8        1.71741   0.00211   0.00005   0.00401   0.00407   1.72148
    A9        1.09411  -0.00070   0.00016   0.00426   0.00442   1.09853
   A10        2.02377  -0.00011   0.00003  -0.00062  -0.00059   2.02318
   A11        1.99893   0.00009   0.00000   0.00060   0.00061   1.99953
   A12        2.02281  -0.00491  -0.00000   0.00000  -0.00000   2.02281
   A13        1.80559  -0.00131  -0.00038  -0.00971  -0.01011   1.79548
   A14        1.68141  -0.00120  -0.00034  -0.00486  -0.00525   1.67617
   A15        2.31916   0.00157   0.00027   0.00515   0.00541   2.32457
   A16        1.97276  -0.00019  -0.00003  -0.00102  -0.00111   1.97165
   A17        1.98055  -0.00001  -0.00019  -0.00665  -0.00689   1.97366
   A18        1.83605  -0.00055   0.00013   0.00407   0.00422   1.84026
   A19        1.98146  -0.00001  -0.00049  -0.00654  -0.00712   1.97434
   A20        1.83330   0.00041   0.00038   0.00700   0.00740   1.84071
   A21        1.84128   0.00039   0.00036   0.00610   0.00647   1.84775
   A22        2.02890  -0.00012  -0.00027  -0.00198  -0.00225   2.02665
   A23        2.31661   0.00065   0.00027   0.00540   0.00567   2.32228
   A24        2.22975   0.00108   0.00025   0.00808   0.00833   2.23808
   A25        2.47316  -0.00042  -0.00022  -0.00368  -0.00390   2.46925
    D1       -0.54365   0.00071   0.00028   0.00557   0.00585  -0.53780
    D2        1.70541  -0.00203  -0.00007  -0.00352  -0.00357   1.70184
    D3        2.43055   0.00099  -0.00027  -0.00447  -0.00475   2.42581
    D4       -2.67766   0.00035   0.00001   0.00275   0.00276  -2.67490
    D5        2.64085  -0.00059  -0.00029  -0.00450  -0.00478   2.63607
    D6        0.33884   0.00177   0.00011   0.00319   0.00329   0.34213
    D7       -0.31508  -0.00091   0.00029   0.00632   0.00661  -0.30847
    D8       -1.60004  -0.00008  -0.00002   0.00043   0.00041  -1.59962
    D9        2.63246  -0.00060  -0.00001  -0.01098  -0.01096   2.62150
   D10        0.60654   0.00011   0.00072  -0.00017   0.00053   0.60707
   D11       -1.45354  -0.00011   0.00039  -0.00710  -0.00671  -1.46026
   D12       -0.71755  -0.00025  -0.00067  -0.02329  -0.02394  -0.74150
   D13       -2.74347   0.00046   0.00005  -0.01249  -0.01245  -2.75593
   D14        1.47963   0.00024  -0.00028  -0.01942  -0.01969   1.45994
   D15        1.02040  -0.00058  -0.00025  -0.01825  -0.01848   1.00191
   D16       -1.00552   0.00014   0.00047  -0.00745  -0.00699  -1.01252
   D17       -3.06560  -0.00009   0.00015  -0.01438  -0.01424  -3.07984
   D18        0.00125   0.00034   0.00057   0.01109   0.01165   0.01291
   D19       -2.05861   0.00004   0.00044   0.00887   0.00931  -2.04930
   D20        2.13867   0.00036   0.00043   0.01130   0.01173   2.15040
   D21        2.06013   0.00024   0.00064   0.01025   0.01090   2.07103
   D22       -1.05889   0.00128  -0.00026  -0.00721  -0.00752  -1.06641
   D23       -1.54606  -0.00055  -0.00024  -0.00320  -0.00342  -1.54948
   D24        0.74188  -0.00076  -0.00102  -0.01993  -0.02092   0.72097
   D25        2.74476  -0.00005  -0.00060  -0.01165  -0.01227   2.73250
   D26       -2.44554  -0.00129   0.00001  -0.00406  -0.00402  -2.44956
   D27       -2.04078   0.00048   0.00003  -0.00314  -0.00309  -2.04386
   D28        1.95832   0.00077   0.00074   0.01088   0.01157   1.96989
   D29       -0.03981   0.00004   0.00031   0.00208   0.00239  -0.03743
   D30       -2.14723  -0.00010   0.00002  -0.00561  -0.00559  -2.15282
   D31       -2.04595   0.00007  -0.00005  -0.01156  -0.01162  -2.05757
   D32        0.04013  -0.00021   0.00015  -0.00759  -0.00742   0.03271
   D33        2.13855   0.00016  -0.00006  -0.00882  -0.00888   2.12967
         Item               Value     Threshold  Converged?
 Maximum Force            0.001936     0.000450     NO 
 RMS     Force            0.000513     0.000300     NO 
 Maximum Displacement     0.032677     0.001800     NO 
 RMS     Displacement     0.011603     0.001200     NO 
 Predicted change in Energy=-7.487278D-05
 GradGradGradGradGradGradGradGradGradGradGradGradGradGradGradGradGradGrad

                          Input orientation:                          
 ---------------------------------------------------------------------
 Center     Atomic      Atomic             Coordinates (Angstroms)
 Number     Number       Type             X           Y           Z
 ---------------------------------------------------------------------
      1         14           0       -1.887508   -0.036351   -0.122211
      2          8           0       -2.762325    1.334232   -0.360025
      3          8           0       -2.942657   -1.300284   -0.100309
      4          8           0       -0.615580   -0.307330   -1.098150
      5         40           0        1.210652   -0.041521   -0.265216
      6          1           0       -3.564669    1.235961   -0.883281
      7          1           0       -2.571599   -2.137313   -0.401648
      8          8           0       -1.052109    0.189033    1.325842
      9          1           0       -1.206729    1.026170    1.779423
     10          8           0        1.704864   -1.484960    0.979562
     11          1           0        1.563022   -1.616903    1.922488
     12          8           0        1.457374    1.764715    0.502593
     13          1           0        2.089377    2.443119    0.239988
     14          8           0        2.481044   -0.171404   -1.744500
     15          1           0        3.220803   -0.699394   -2.055766
 ---------------------------------------------------------------------
                    Distance matrix (angstroms):
                    1          2          3          4          5
     1  Si   0.000000
     2  O    1.643276   0.000000
     3  O    1.646617   2.653421   0.000000
     4  O    1.625941   2.801439   2.719730   0.000000
     5  Zr   3.101462   4.205499   4.343001   2.024736   0.000000
     6  H    2.238498   0.962918   2.726257   3.335422   4.981732
     7  H    2.227130   3.477029   0.963902   2.767664   4.326243
     8  O    1.686874   2.660538   2.797525   2.512502   2.775736
     9  H    2.282240   2.663084   3.458211   3.226159   3.341294
    10  O    4.027097   5.449597   4.774901   3.329889   1.969070
    11  H    4.311043   5.712065   4.949051   3.947853   2.718832
    12  O    3.849993   4.328427   5.396108   3.339593   1.978102
    13  H    4.700486   5.012849   6.280942   4.083182   2.683435
    14  O    4.662007   5.628200   5.778778   3.166280   1.954238
    15  H    5.502099   6.542858   6.494084   3.973484   2.771204
                    6          7          8          9         10
     6  H    0.000000
     7  H    3.549244   0.000000
     8  O    3.505601   3.271843   0.000000
     9  H    3.562848   4.077691   0.964594   0.000000
    10  O    6.216235   4.541083   3.243927   3.927203   0.000000
    11  H    6.504183   4.771533   3.233621   3.831164   0.962621
    12  O    5.236520   5.681205   3.075389   3.045191   3.293803
    13  H    5.889584   6.566335   4.016082   3.904090   4.015548
    14  O    6.266820   5.585450   4.694687   5.239455   3.122242
    15  H    7.152828   6.193193   5.521082   6.106495   3.482586
                   11         12         13         14         15
    11  H    0.000000
    12  O    3.669142   0.000000
    13  H    4.426244   0.963650   0.000000
    14  O    4.047102   3.137815   3.305651   0.000000
    15  H    4.406424   3.965692   4.052900   0.960678   0.000000
 Stoichiometry    H6O7SiZr
 Framework group  C1[X(H6O7SiZr)]
 Deg. of freedom    39
 Full point group                 C1      NOp   1
 Largest Abelian subgroup         C1      NOp   1
 Largest concise Abelian subgroup C1      NOp   1
                         Standard orientation:                         
 ---------------------------------------------------------------------
 Center     Atomic      Atomic             Coordinates (Angstroms)
 Number     Number       Type             X           Y           Z
 ---------------------------------------------------------------------
      1         14           0       -1.950079   -0.042695   -0.116351
      2          8           0       -2.820356    1.313345   -0.439042
      3          8           0       -2.992053   -1.317494   -0.139294
      4          8           0       -0.613429   -0.318449   -1.000099
      5         40           0        1.150631   -0.016563   -0.053255
      6          1           0       -3.585090    1.196186   -1.012336
      7          1           0       -2.593664   -2.156050   -0.398556
      8          8           0       -1.215173    0.219747    1.379169
      9          1           0       -1.407752    1.063726    1.804673
     10          8           0        1.574824   -1.430204    1.250169
     11          1           0        1.371799   -1.545487    2.184048
     12          8           0        1.328175    1.806749    0.693002
     13          1           0        1.969659    2.486869    0.459430
     14          8           0        2.517898   -0.160981   -1.442057
     15          1           0        3.281819   -0.686712   -1.692923
 ---------------------------------------------------------------------
 Rotational constants (GHZ):           1.7529123           0.5867893           0.5665259
 Basis read from rwf:  (5D, 7F)
 Pseudo-potential data read from rwf file.
 There are   178 symmetry adapted cartesian basis functions of A   symmetry.
 There are   168 symmetry adapted basis functions of A   symmetry.
   168 basis functions,   339 primitive gaussians,   178 cartesian basis functions
    44 alpha electrons       44 beta electrons
       nuclear repulsion energy       658.1094213265 Hartrees.
 NAtoms=   15 NActive=   15 NUniq=   15 SFac= 1.00D+00 NAtFMM=   60 NAOKFM=F Big=F
 Integral buffers will be    131072 words long.
 Raffenetti 2 integral format.
 Two-electron integral symmetry is turned on.
 One-electron integrals computed using PRISM.
   1 Symmetry operations used in ECPInt.
 ECPInt:  NShTT=    1770 NPrTT=   10201 LenC2=    1660 LenP2D=    6694.
 LDataN:  DoStor=T MaxTD1= 5 Len=  102
 NBasis=   168 RedAO= T EigKep=  9.50D-03  NBF=   168
 NBsUse=   168 1.00D-06 EigRej= -1.00D+00 NBFU=   168
 Defaulting to unpruned grid for atomic number  40.
 Initial guess from the checkpoint file:  "/localscratch/sarashs.33453162.0/Gau-13518.chk"
 B after Tr=    -0.000000    0.000000    0.000000
         Rot=    0.999994    0.003277    0.001107    0.000007 Ang=   0.40 deg.
 ExpMin= 2.43D-02 ExpMax= 1.61D+04 ExpMxC= 2.43D+03 IAcc=3 IRadAn=         5 AccDes= 0.00D+00
 Harris functional with IExCor=  402 and IRadAn=       5 diagonalized for initial guess.
 HarFok:  IExCor=  402 AccDes= 0.00D+00 IRadAn=         5 IDoV= 1 UseB2=F ITyADJ=14
 ICtDFT=  3500011 ScaDFX=  1.000000  1.000000  1.000000  1.000000
 Defaulting to unpruned grid for atomic number  40.
 FoFCou: FMM=F IPFlag=           0 FMFlag=      100000 FMFlg1=           0
         NFxFlg=           0 DoJE=T BraDBF=F KetDBF=T FulRan=T
         wScrn=  0.000000 ICntrl=       500 IOpCl=  0 I1Cent=   200000004 NGrid=           0
         NMat0=    1 NMatS0=      1 NMatT0=    0 NMatD0=    1 NMtDS0=    0 NMtDT0=    0
 Petite list used in FoFCou.
 Requested convergence on RMS density matrix=1.00D-08 within 128 cycles.
 Requested convergence on MAX density matrix=1.00D-06.
 Requested convergence on             energy=1.00D-06.
 No special actions if energy rises.
 Defaulting to unpruned grid for atomic number  40.
 Defaulting to unpruned grid for atomic number  40.
 Defaulting to unpruned grid for atomic number  40.
 Defaulting to unpruned grid for atomic number  40.
 Defaulting to unpruned grid for atomic number  40.
 Defaulting to unpruned grid for atomic number  40.
 Defaulting to unpruned grid for atomic number  40.
 Defaulting to unpruned grid for atomic number  40.
 Defaulting to unpruned grid for atomic number  40.
 Defaulting to unpruned grid for atomic number  40.
 Defaulting to unpruned grid for atomic number  40.
 Defaulting to unpruned grid for atomic number  40.
 Defaulting to unpruned grid for atomic number  40.
 Defaulting to unpruned grid for atomic number  40.
 Defaulting to unpruned grid for atomic number  40.
 Defaulting to unpruned grid for atomic number  40.
 SCF Done:  E(RB3LYP) =  -866.688178444     A.U. after    9 cycles
            NFock=  9  Conv=0.91D-08     -V/T= 2.0445
   1 Symmetry operations used in ECPInt.
 ECPInt:  NShTT=    1770 NPrTT=   10201 LenC2=    1660 LenP2D=    6694.
 LDataN:  DoStor=T MaxTD1= 6 Len=  172
 Calling FoFJK, ICntrl=      2127 FMM=F ISym2X=0 I1Cent= 0 IOpClX= 0 NMat=1 NMatS=1 NMatT=0.
 Defaulting to unpruned grid for atomic number  40.
 Defaulting to unpruned grid for atomic number  40.
 Defaulting to unpruned grid for atomic number  40.
 Defaulting to unpruned grid for atomic number  40.
 Defaulting to unpruned grid for atomic number  40.
 Defaulting to unpruned grid for atomic number  40.
 Defaulting to unpruned grid for atomic number  40.
 Defaulting to unpruned grid for atomic number  40.
 Defaulting to unpruned grid for atomic number  40.
 Defaulting to unpruned grid for atomic number  40.
 Defaulting to unpruned grid for atomic number  40.
 Defaulting to unpruned grid for atomic number  40.
 Defaulting to unpruned grid for atomic number  40.
 Defaulting to unpruned grid for atomic number  40.
 Defaulting to unpruned grid for atomic number  40.
 Defaulting to unpruned grid for atomic number  40.
 ***** Axes restored to original set *****
 -------------------------------------------------------------------
 Center     Atomic                   Forces (Hartrees/Bohr)
 Number     Number              X              Y              Z
 -------------------------------------------------------------------
      1       14           0.002478721    0.001488528    0.005776636
      2        8           0.000179893    0.000049771   -0.000058892
      3        8          -0.000033875   -0.000138808   -0.000297288
      4        8          -0.001745313   -0.002205827   -0.007720524
      5       40           0.001020096    0.000355578    0.003197503
      6        1           0.000029563   -0.000105969    0.000014434
      7        1           0.000031675    0.000015982    0.000118836
      8        8          -0.000614027    0.000171704   -0.001104515
      9        1          -0.000327689   -0.000039263    0.000407085
     10        8          -0.000716765    0.000653606   -0.000069934
     11        1           0.000049395   -0.000114561   -0.000207822
     12        8          -0.000167571   -0.000399620   -0.000432077
     13        1          -0.000221819    0.000203693    0.000312562
     14        8          -0.000025314    0.000197529   -0.000199030
     15        1           0.000063029   -0.000132344    0.000263026
 -------------------------------------------------------------------
 Cartesian Forces:  Max     0.007720524 RMS     0.001663009

 GradGradGradGradGradGradGradGradGradGradGradGradGradGradGradGradGradGrad
 Berny optimization.
 Using GEDIIS/GDIIS optimizer.
 FormGI is forming the generalized inverse of G from B-inverse, IUseBI=4.
 Internal  Forces:  Max     0.004596304 RMS     0.001033928
 Search for a local minimum.
 Step number   3 out of a maximum of   83
 All quantities printed in internal units (Hartrees-Bohrs-Radians)
 Mixed Optimization -- En-DIIS/RFO-DIIS
 Swapping is turned off.
 Update second derivatives using D2CorX and points    1    2    3
 DE= -1.06D-04 DEPred=-7.49D-05 R= 1.42D+00
 TightC=F SS=  1.41D+00  RLast= 6.60D-02 DXNew= 5.0454D-01 1.9798D-01
 Trust test= 1.42D+00 RLast= 6.60D-02 DXMaxT set to 3.00D-01
 ITU=  1  1  0
     Eigenvalues ---    0.00224   0.00230   0.00234   0.00525   0.01941
     Eigenvalues ---    0.03703   0.03782   0.03984   0.04803   0.06187
     Eigenvalues ---    0.08326   0.11046   0.13138   0.14761   0.15175
     Eigenvalues ---    0.15520   0.16000   0.16000   0.16000   0.16019
     Eigenvalues ---    0.16433   0.18257   0.18776   0.19478   0.20261
     Eigenvalues ---    0.21527   0.22770   0.27277   0.35682   0.36636
     Eigenvalues ---    0.43273   0.43954   0.54392   0.54630   0.54690
     Eigenvalues ---    0.54844   0.54972   0.553451000.000001000.00000
     Eigenvalues --- 1000.000001000.000001000.000001000.000001000.00000
     Eigenvalues --- 1000.000001000.000001000.000001000.000001000.00000
     Eigenvalues --- 1000.000001000.000001000.000001000.000001000.00000
     Eigenvalues --- 1000.000001000.000001000.000001000.000001000.00000
     Eigenvalues --- 1000.000001000.000001000.000001000.000001000.00000
     Eigenvalues --- 1000.000001000.000001000.000001000.000001000.00000
     Eigenvalues --- 1000.000001000.000001000.00000
 En-DIIS/RFO-DIIS/Sim-DIIS IScMMF=       -3 using points:     3    2
 RFO step:  Lambda=-1.39308809D-04.
 DidBck=F Rises=F RFO-DIIS coefs:    2.12896   -1.12896
 Iteration  1 RMS(Cart)=  0.01360078 RMS(Int)=  0.00014653
 Iteration  2 RMS(Cart)=  0.00015948 RMS(Int)=  0.00006521
 Iteration  3 RMS(Cart)=  0.00000002 RMS(Int)=  0.00006521
 Iteration  1 RMS(Cart)=  0.00000407 RMS(Int)=  0.00000332
 Iteration  2 RMS(Cart)=  0.00000284 RMS(Int)=  0.00000365
 Iteration  3 RMS(Cart)=  0.00000198 RMS(Int)=  0.00000421
 Iteration  4 RMS(Cart)=  0.00000138 RMS(Int)=  0.00000470
 Iteration  5 RMS(Cart)=  0.00000096 RMS(Int)=  0.00000508
 Variable       Old X    -DE/DX   Delta X   Delta X   Delta X     New X
                                 (Linear)    (Quad)   (Total)
    R1        3.10534  -0.00015   0.00041  -0.00037   0.00004   3.10538
    R2        3.11166   0.00009   0.00043   0.00040   0.00083   3.11249
    R3        3.07258   0.00361   0.00000   0.00367   0.00369   3.07627
    R4        5.86091  -0.00235  -0.00307   0.00682   0.00376   5.86467
    R5        3.18773  -0.00105  -0.00572  -0.00282  -0.00854   3.17919
    R6        1.81965  -0.00002  -0.00008  -0.00002  -0.00011   1.81955
    R7        1.82151  -0.00004   0.00001  -0.00017  -0.00015   1.82136
    R8        3.82620   0.00342  -0.00348   0.00438   0.00088   3.82708
    R9        3.72100  -0.00074   0.00323  -0.00828  -0.00505   3.71595
   R10        3.73807  -0.00027   0.00616  -0.00833  -0.00217   3.73590
   R11        3.69297  -0.00003   0.00886  -0.00627   0.00258   3.69556
   R12        1.82282   0.00021  -0.00030   0.00039   0.00009   1.82291
   R13        1.81909  -0.00019  -0.00039  -0.00028  -0.00068   1.81841
   R14        1.82104  -0.00009  -0.00009  -0.00024  -0.00033   1.82070
   R15        1.81542   0.00004   0.00008   0.00010   0.00017   1.81559
    A1        1.87654   0.00002  -0.00086  -0.00004  -0.00097   1.87557
    A2        2.05849  -0.00078  -0.00324  -0.00237  -0.00564   2.05285
    A3        2.12529  -0.00008   0.00079   0.00152   0.00225   2.12753
    A4        1.85088   0.00001   0.00463  -0.00222   0.00240   1.85328
    A5        1.96204  -0.00122  -0.00509  -0.00052  -0.00565   1.95638
    A6        2.26458   0.00013  -0.00209  -0.00207  -0.00422   2.26036
    A7        1.99159   0.00019   0.00117   0.00108   0.00229   1.99388
    A8        1.72148   0.00200   0.00459   0.00433   0.00892   1.73040
    A9        1.09853  -0.00056   0.00499   0.00382   0.00883   1.10736
   A10        2.02318  -0.00020  -0.00067  -0.00166  -0.00232   2.02085
   A11        1.99953  -0.00003   0.00068  -0.00059   0.00009   1.99962
   A12        2.02281  -0.00460  -0.00000   0.00000  -0.00000   2.02281
   A13        1.79548  -0.00096  -0.01142  -0.00382  -0.01531   1.78017
   A14        1.67617  -0.00109  -0.00593  -0.00442  -0.01047   1.66569
   A15        2.32457   0.00144   0.00611   0.00297   0.00905   2.33362
   A16        1.97165  -0.00009  -0.00125  -0.00297  -0.00440   1.96725
   A17        1.97366   0.00007  -0.00778  -0.00338  -0.01131   1.96235
   A18        1.84026  -0.00059   0.00476   0.00292   0.00774   1.84800
   A19        1.97434   0.00024  -0.00803  -0.00038  -0.00872   1.96562
   A20        1.84071   0.00005   0.00836   0.00174   0.01016   1.85087
   A21        1.84775   0.00027   0.00731   0.00331   0.01066   1.85841
   A22        2.02665   0.00018  -0.00254   0.00151  -0.00104   2.02561
   A23        2.32228   0.00024   0.00640   0.00125   0.00765   2.32994
   A24        2.23808   0.00077   0.00941   0.00545   0.01485   2.25293
   A25        2.46925  -0.00052  -0.00441  -0.00479  -0.00919   2.46006
    D1       -0.53780   0.00054   0.00661   0.00172   0.00833  -0.52948
    D2        1.70184  -0.00179  -0.00403  -0.00100  -0.00499   1.69684
    D3        2.42581   0.00097  -0.00536  -0.00166  -0.00706   2.41875
    D4       -2.67490   0.00030   0.00312   0.00170   0.00481  -2.67009
    D5        2.63607  -0.00037  -0.00540   0.00047  -0.00489   2.63118
    D6        0.34213   0.00161   0.00371   0.00409   0.00778   0.34991
    D7       -0.30847  -0.00081   0.00746   0.00369   0.01113  -0.29734
    D8       -1.59962  -0.00023   0.00047  -0.00169  -0.00121  -1.60084
    D9        2.62150  -0.00044  -0.01238   0.00533  -0.00696   2.61454
   D10        0.60707  -0.00015   0.00060   0.00794   0.00847   0.61554
   D11       -1.46026  -0.00024  -0.00758   0.00605  -0.00154  -1.46179
   D12       -0.74150   0.00007  -0.02703   0.00149  -0.02545  -0.76694
   D13       -2.75593   0.00036  -0.01406   0.00410  -0.01002  -2.76594
   D14        1.45994   0.00027  -0.02223   0.00221  -0.02003   1.43991
   D15        1.00191  -0.00015  -0.02087   0.00661  -0.01419   0.98772
[...]
 ! A12   A(1,4,5)              115.8985         -DE/DX =   -0.0028              !
 ! A13   A(1,5,10)             101.5298         -DE/DX =   -0.0003              !
 ! A14   A(1,5,12)              95.5599         -DE/DX =   -0.0004              !
 ! A15   A(1,5,14)             134.1028         -DE/DX =    0.0006              !
 ! A16   A(4,5,10)             112.7773         -DE/DX =    0.0001              !
 ! A17   A(4,5,12)             112.0183         -DE/DX =    0.0003              !
 ! A18   A(4,5,14)             106.158          -DE/DX =   -0.0006              !
 ! A19   A(10,5,12)            112.9216         -DE/DX =    0.0001              !
 ! A20   A(10,5,14)            105.4832         -DE/DX =   -0.0001              !
 ! A21   A(12,5,14)            106.8317         -DE/DX =    0.0                 !
 ! A22   A(1,8,9)              116.256          -DE/DX =    0.0                 !
 ! A23   A(5,10,11)            132.6684         -DE/DX =    0.0                 !
 ! A24   A(5,12,13)            131.2283         -DE/DX =    0.0                 !
 ! A25   A(5,14,15)            138.497          -DE/DX =    0.0                 !
 ! D1    D(3,1,2,6)            -31.4038         -DE/DX =    0.0003              !
 ! D2    D(4,1,2,6)             95.9961         -DE/DX =   -0.001               !
 ! D3    D(5,1,2,6)            137.403          -DE/DX =    0.0007              !
 ! D4    D(8,1,2,6)           -153.9661         -DE/DX =    0.0                 !
 ! D5    D(2,1,3,7)            151.1396         -DE/DX =   -0.0002              !
 ! D6    D(4,1,3,7)             20.39           -DE/DX =    0.0008              !
 ! D7    D(5,1,3,7)            -16.4413         -DE/DX =   -0.0006              !
 ! D8    D(8,1,3,7)            -91.6292         -DE/DX =    0.0                 !
 ! D9    D(2,1,5,10)           148.0894         -DE/DX =   -0.0003              !
 ! D10   D(2,1,5,12)            33.3034         -DE/DX =   -0.0002              !
 ! D11   D(2,1,5,14)           -86.6626         -DE/DX =   -0.0002              !
 ! D12   D(3,1,5,10)           -45.86           -DE/DX =    0.0002              !
 ! D13   D(3,1,5,12)          -160.6459         -DE/DX =    0.0002              !
 ! D14   D(3,1,5,14)            79.388          -DE/DX =    0.0002              !
 ! D15   D(8,1,5,10)            54.8835         -DE/DX =   -0.0001              !
 ! D16   D(8,1,5,12)           -59.9024         -DE/DX =    0.0                 !
 ! D17   D(8,1,5,14)          -179.8684         -DE/DX =    0.0                 !
 ! D18   D(2,1,8,9)              4.836          -DE/DX =    0.0001              !
 ! D19   D(3,1,8,9)           -113.2239         -DE/DX =    0.0                 !
 ! D20   D(4,1,8,9)            127.4378         -DE/DX =    0.0001              !
 ! D21   D(5,1,8,9)            122.7061         -DE/DX =   -0.0001              !
 ! D22   D(1,5,10,11)          -54.6115         -DE/DX =    0.0006              !
 ! D23   D(4,5,10,11)          -81.6926         -DE/DX =   -0.0006              !
 ! D24   D(12,5,10,11)          46.5526         -DE/DX =    0.0                 !
 ! D25   D(14,5,10,11)         162.8712         -DE/DX =    0.0                 !
 ! D26   D(1,5,12,13)         -139.7877         -DE/DX =   -0.0005              !
 ! D27   D(4,5,12,13)         -116.1711         -DE/DX =    0.0005              !
 ! D28   D(10,5,12,13)         115.1896         -DE/DX =    0.0                 !
 ! D29   D(14,5,12,13)          -0.325          -DE/DX =    0.0                 !
 ! D30   D(1,5,14,15)         -126.7476         -DE/DX =   -0.0001              !
 ! D31   D(4,5,14,15)         -122.7802         -DE/DX =    0.0001              !
 ! D32   D(10,5,14,15)          -2.8787         -DE/DX =    0.0                 !
 ! D33   D(12,5,14,15)         117.5209         -DE/DX =    0.0                 !
 --------------------------------------------------------------------------------
 GradGradGradGradGradGradGradGradGradGradGradGradGradGradGradGradGradGrad

                          Input orientation:                          
 ---------------------------------------------------------------------
 Center     Atomic      Atomic             Coordinates (Angstroms)
 Number     Number       Type             X           Y           Z
 ---------------------------------------------------------------------
      1         14           0       -1.875605   -0.034938   -0.107307
      2          8           0       -2.753320    1.339705   -0.312780
      3          8           0       -2.931671   -1.299785   -0.115648
      4          8           0       -0.615190   -0.288239   -1.108470
      5         40           0        1.225951   -0.032602   -0.297054
      6          1           0       -3.550075    1.249897   -0.846168
      7          1           0       -2.557878   -2.128598   -0.435676
      8          8           0       -1.042198    0.160981    1.339128
      9          1           0       -1.242777    0.958833    1.842396
     10          8           0        1.698954   -1.451550    0.979828
     11          1           0        1.484105   -1.592606    1.907394
     12          8           0        1.461695    1.780740    0.446588
     13          1           0        2.059141    2.494676    0.200784
     14          8           0        2.500192   -0.210485   -1.771260
     15          1           0        3.262636   -0.748261   -2.002964
 ---------------------------------------------------------------------
                    Distance matrix (angstroms):
                    1          2          3          4          5
     1  Si   0.000000
     2  O    1.643851   0.000000
     3  O    1.647782   2.652843   0.000000
     4  O    1.629458   2.802663   2.715696   0.000000
     5  Zr   3.107355   4.209283   4.350228   2.028188   0.000000
     6  H    2.236195   0.963009   2.723410   3.323885   4.975615
     7  H    2.226373   3.475978   0.963883   2.759277   4.327791
     8  O    1.680810   2.654454   2.796483   2.524851   2.803402
     9  H    2.278023   2.659245   3.433315   3.264455   3.413913
    10  O    3.995763   5.411532   4.760861   3.327093   1.966614
    11  H    4.215803   5.611006   4.865955   3.899212   2.712903
    12  O    3.839407   4.305519   5.395128   3.318483   1.974028
    13  H    4.687867   4.975690   6.277442   4.075636   2.707247
    14  O    4.684779   5.668301   5.782107   3.186054   1.956685
    15  H    5.523031   6.588479   6.498891   4.006155   2.751434
                    6          7          8          9         10
     6  H    0.000000
     7  H    3.545023   0.000000
     8  O    3.500100   3.269463   0.000000
     9  H    3.554816   4.056024   0.964406   0.000000
    10  O    6.179351   4.536813   3.200510   3.899712   0.000000
    11  H    6.403506   4.702647   3.127331   3.734964   0.962515
    12  O    5.202965   5.676115   3.112832   3.152456   3.284559
    13  H    5.840282   6.564801   4.044783   3.994543   4.038483
    14  O    6.292395   5.571985   4.728744   5.332507   3.122613
    15  H    7.193320   6.183859   5.525206   6.164391   3.440460
                   11         12         13         14         15
    11  H    0.000000
    12  O    3.676128   0.000000
    13  H    4.466438   0.962844   0.000000
    14  O    4.058964   3.156311   3.376593   0.000000
    15  H    4.378013   3.954686   4.101408   0.961359   0.000000
 Stoichiometry    H6O7SiZr
 Framework group  C1[X(H6O7SiZr)]
 Deg. of freedom    39
 Full point group                 C1      NOp   1
 Largest Abelian subgroup         C1      NOp   1
 Largest concise Abelian subgroup C1      NOp   1
                         Standard orientation:                         
 ---------------------------------------------------------------------
 Center     Atomic      Atomic             Coordinates (Angstroms)
 Number     Number       Type             X           Y           Z
 ---------------------------------------------------------------------
      1         14           0       -1.947857   -0.045824   -0.116292
      2          8           0       -2.818127    1.308080   -0.450685
      3          8           0       -2.988638   -1.322718   -0.155043
      4          8           0       -0.608441   -0.325730   -1.001024
      5         40           0        1.158744   -0.013566   -0.055955
      6          1           0       -3.568325    1.186096   -1.042048
      7          1           0       -2.582925   -2.159669   -0.407988
      8          8           0       -1.235889    0.221162    1.382689
      9          1           0       -1.483507    1.037036    1.833370
     10          8           0        1.539401   -1.371451    1.314746
     11          1           0        1.251501   -1.475841    2.227244
     12          8           0        1.317647    1.832301    0.625449
     13          1           0        1.926717    2.542478    0.397964
     14          8           0        2.549528   -0.237928   -1.413894
     15          1           0        3.332907   -0.775641   -1.560165
 ---------------------------------------------------------------------
 Rotational constants (GHZ):           1.7539383           0.5853481           0.5656252

 **********************************************************************

            Population analysis using the SCF Density.

 **********************************************************************

 Orbital symmetries:
       Occupied  (A) (A) (A) (A) (A) (A) (A) (A) (A) (A) (A) (A)
                 (A) (A) (A) (A) (A) (A) (A) (A) (A) (A) (A) (A)
                 (A) (A) (A) (A) (A) (A) (A) (A) (A) (A) (A) (A)
                 (A) (A) (A) (A) (A) (A) (A) (A)
       Virtual   (A) (A) (A) (A) (A) (A) (A) (A) (A) (A) (A) (A)
                 (A) (A) (A) (A) (A) (A) (A) (A) (A) (A) (A) (A)
                 (A) (A) (A) (A) (A) (A) (A) (A) (A) (A) (A) (A)
                 (A) (A) (A) (A) (A) (A) (A) (A) (A) (A) (A) (A)
                 (A) (A) (A) (A) (A) (A) (A) (A) (A) (A) (A) (A)
                 (A) (A) (A) (A) (A) (A) (A) (A) (A) (A) (A) (A)
                 (A) (A) (A) (A) (A) (A) (A) (A) (A) (A) (A) (A)
                 (A) (A) (A) (A) (A) (A) (A) (A) (A) (A) (A) (A)
                 (A) (A) (A) (A) (A) (A) (A) (A) (A) (A) (A) (A)
                 (A) (A) (A) (A) (A) (A) (A) (A) (A) (A) (A) (A)
                 (A) (A) (A) (A)
 The electronic state is 1-A.
 Alpha  occ. eigenvalues --  -66.19459 -19.15752 -19.15089 -19.15051 -19.13672
 Alpha  occ. eigenvalues --  -19.13183 -19.13178 -19.12234  -5.33797  -3.69776
 Alpha  occ. eigenvalues --   -3.69723  -3.69679  -2.05711  -1.26413  -1.26314
 Alpha  occ. eigenvalues --   -1.25970  -1.03064  -1.00158  -0.99646  -0.95343
 Alpha  occ. eigenvalues --   -0.94517  -0.94061  -0.93000  -0.57500  -0.52684
 Alpha  occ. eigenvalues --   -0.51955  -0.48025  -0.47268  -0.46816  -0.43534
 Alpha  occ. eigenvalues --   -0.39302  -0.38444  -0.37577  -0.35795  -0.34830
 Alpha  occ. eigenvalues --   -0.34026  -0.33704  -0.33218  -0.32090  -0.31785
 Alpha  occ. eigenvalues --   -0.30788  -0.30595  -0.30032  -0.29687
 Alpha virt. eigenvalues --   -0.01575  -0.00856  -0.00067   0.00502   0.01553
 Alpha virt. eigenvalues --    0.02215   0.02905   0.03198   0.04275   0.08524
 Alpha virt. eigenvalues --    0.09483   0.11474   0.14780   0.15376   0.16110
 Alpha virt. eigenvalues --    0.17121   0.17971   0.19087   0.19674   0.23436
 Alpha virt. eigenvalues --    0.23866   0.24542   0.25002   0.26407   0.27941
 Alpha virt. eigenvalues --    0.30410   0.31924   0.34027   0.38004   0.39417
 Alpha virt. eigenvalues --    0.41676   0.56459   0.64066   0.72872   0.79072
 Alpha virt. eigenvalues --    0.80476   0.84245   0.86231   0.87241   0.88681
 Alpha virt. eigenvalues --    0.90854   0.91803   0.92974   0.95582   0.95721
 Alpha virt. eigenvalues --    0.97831   0.98687   1.00089   1.01675   1.04485
 Alpha virt. eigenvalues --    1.07403   1.07746   1.08249   1.09593   1.12102
 Alpha virt. eigenvalues --    1.14412   1.16818   1.18516   1.19955   1.21202
 Alpha virt. eigenvalues --    1.23375   1.25926   1.27391   1.37373   1.47139
 Alpha virt. eigenvalues --    1.48269   1.50477   1.52595   1.54316   1.57017
 Alpha virt. eigenvalues --    1.57656   1.58417   1.60767   1.61962   1.63005
 Alpha virt. eigenvalues --    1.63709   1.64166   1.66496   1.68655   1.70646
 Alpha virt. eigenvalues --    1.73231   1.75254   1.79895   1.80288   1.81528
 Alpha virt. eigenvalues --    1.82540   1.83853   1.85373   1.87055   1.88309
 Alpha virt. eigenvalues --    1.91167   1.92295   2.01699   2.08491   2.13796
 Alpha virt. eigenvalues --    2.35627   2.36027   2.36624   2.37457   2.38410
 Alpha virt. eigenvalues --    2.39394   2.43707   2.56611   2.60002   2.62254
 Alpha virt. eigenvalues --    2.62793   2.63976   2.64260   2.64644   2.64767
 Alpha virt. eigenvalues --    2.64942   2.65358   2.65796   2.66740   2.72846
 Alpha virt. eigenvalues --    2.77555   2.82223   3.40955   3.42270   3.43075
 Alpha virt. eigenvalues --    3.44125   3.45142   3.46761   4.11296
          Condensed to atoms (all electrons):
               1          2          3          4          5          6
     1  Si  11.549599   0.388589   0.394787   0.341803  -0.085774  -0.021864
     2  O    0.388589   7.953265  -0.020488  -0.010790   0.003912   0.303976
     3  O    0.394787  -0.020488   7.947145  -0.017544  -0.000936  -0.000953
     4  O    0.341803  -0.010790  -0.017544   8.280106   0.185648  -0.000302
     5  Zr  -0.085774   0.003912  -0.000936   0.185648   9.775073  -0.000961
     6  H   -0.021864   0.303976  -0.000953  -0.000302  -0.000961   0.381268
     7  H   -0.018831   0.000385   0.301563   0.001440  -0.002658  -0.000049
     8  O    0.273442  -0.018413  -0.013129  -0.036741   0.099002   0.000617
     9  H   -0.011805   0.000763  -0.000262   0.001042  -0.009045   0.000014
    10  O   -0.005722  -0.000000   0.000001   0.000350   0.224869  -0.000000
    11  H    0.000131  -0.000000   0.000001  -0.000110  -0.016876   0.000000
    12  O   -0.006674   0.000004  -0.000000   0.000427   0.223118   0.000000
    13  H    0.000308  -0.000001   0.000000  -0.000025  -0.016284  -0.000000
    14  O   -0.000068   0.000000  -0.000000   0.000815   0.210829   0.000000
    15  H   -0.000021   0.000000   0.000000  -0.000048  -0.014634  -0.000000
               7          8          9         10         11         12
     1  Si  -0.018831   0.273442  -0.011805  -0.005722   0.000131  -0.006674
     2  O    0.000385  -0.018413   0.000763  -0.000000  -0.000000   0.000004
     3  O    0.301563  -0.013129  -0.000262   0.000001   0.000001  -0.000000
     4  O    0.001440  -0.036741   0.001042   0.000350  -0.000110   0.000427
     5  Zr  -0.002658   0.099002  -0.009045   0.224869  -0.016876   0.223118
     6  H   -0.000049   0.000617   0.000014  -0.000000   0.000000   0.000000
     7  H    0.384335  -0.000270   0.000056  -0.000005  -0.000001   0.000000
     8  O   -0.000270   8.031916   0.299385  -0.002653  -0.000358  -0.003163
     9  H    0.000056   0.299385   0.369403  -0.000017  -0.000016   0.000510
    10  O   -0.000005  -0.002653  -0.000017   8.176526   0.295532   0.000810
    11  H   -0.000001  -0.000358  -0.000016   0.295532   0.389766  -0.000331
    12  O    0.000000  -0.003163   0.000510   0.000810  -0.000331   8.186389
    13  H    0.000000   0.000101  -0.000026  -0.000057   0.000001   0.292860
    14  O   -0.000000  -0.000015   0.000001   0.000985   0.000016   0.000730
    15  H    0.000000  -0.000001  -0.000000  -0.000590   0.000000  -0.000102
              13         14         15
     1  Si   0.000308  -0.000068  -0.000021
     2  O   -0.000001   0.000000   0.000000
     3  O    0.000000  -0.000000   0.000000
     4  O   -0.000025   0.000815  -0.000048
     5  Zr  -0.016284   0.210829  -0.014634
     6  H   -0.000000   0.000000  -0.000000
     7  H    0.000000  -0.000000   0.000000
     8  O    0.000101  -0.000015  -0.000001
     9  H   -0.000026   0.000001  -0.000000
    10  O   -0.000057   0.000985  -0.000590
    11  H    0.000001   0.000016   0.000000
    12  O    0.292860   0.000730  -0.000102
    13  H    0.395880  -0.001092  -0.000004
    14  O   -0.001092   8.181182   0.297898
    15  H   -0.000004   0.297898   0.384131
 Mulliken charges:
               1
     1  Si   1.202101
     2  O   -0.601200
     3  O   -0.590184
     4  O   -0.746070
     5  Zr   1.424718
     6  H    0.338254
     7  H    0.334035
     8  O   -0.629718
     9  H    0.349996
    10  O   -0.690028
    11  H    0.332245
    12  O   -0.694578
    13  H    0.328339
    14  O   -0.691281
    15  H    0.333372
 Sum of Mulliken charges =  -0.00000
 Mulliken charges with hydrogens summed into heavy atoms:
               1
     1  Si   1.202101
     2  O   -0.262946
     3  O   -0.256149
     4  O   -0.746070
     5  Zr   1.424718
     8  O   -0.279723
    10  O   -0.357784
    12  O   -0.366239
    14  O   -0.357910
 Electronic spatial extent (au):  <R**2>=           1940.0704
 Charge=             -0.0000 electrons
 Dipole moment (field-independent basis, Debye):
    X=              0.3403    Y=             -0.0726    Z=              0.5043  Tot=              0.6127
 Quadrupole moment (field-independent basis, Debye-Ang):
   XX=            -65.6310   YY=            -68.7710   ZZ=            -71.4376
   XY=              0.6440   XZ=              1.5521   YZ=              1.5079
 Traceless Quadrupole moment (field-independent basis, Debye-Ang):
   XX=              2.9822   YY=             -0.1578   ZZ=             -2.8244
   XY=              0.6440   XZ=              1.5521   YZ=              1.5079
 Octapole moment (field-independent basis, Debye-Ang**2):
  XXX=             45.3508  YYY=             -2.3629  ZZZ=             20.1839  XYY=             12.4415
  XXY=             11.8840  XXZ=            -26.8557  XZZ=              2.3906  YZZ=             -2.3145
  YYZ=             -3.0633  XYZ=              2.5776
 Hexadecapole moment (field-independent basis, Debye-Ang**3):
 XXXX=          -1422.5708 YYYY=           -359.6536 ZZZZ=           -320.6425 XXXY=            -77.5925
 XXXZ=             19.0818 YYYX=             78.3263 YYYZ=             11.2355 ZZZX=             11.3537
 ZZZY=            -12.0805 XXYY=           -291.8912 XXZZ=           -284.5304 YYZZ=           -113.1400
 XXYZ=             22.4702 YYXZ=             -2.3193 ZZXY=            -34.3035
 N-N= 6.579658334660D+02 E-N=-3.352409296501D+03  KE= 8.297855813198D+02
 1\1\GINC-GRA1232\FOpt\RB3LYP\Gen\H6O7Si1Zr1\SARASHS\24-Jun-2020\0\\#n 
 B3LYP/GEN PSEUDO=READ Opt(modredundant)\\Title\\0,1\Si,-1.87560461,-0.
 0349375681,-0.1073068954\O,-2.7533195802,1.3397048277,-0.3127800873\O,
 -2.9316712642,-1.2997848413,-0.1156477436\O,-0.6151902033,-0.288238527
 7,-1.1084704417\Zr,1.225950533,-0.0326018975,-0.2970535469\H,-3.550074
 8479,1.2498973038,-0.8461680544\H,-2.5578779863,-2.1285980664,-0.43567
 61543\O,-1.042197987,0.1609809063,1.3391276297\H,-1.2427774959,0.95883
 295,1.8423958194\O,1.698954354,-1.45154952,0.979828186\H,1.4841047149,
 -1.5926062385,1.9073938085\O,1.4616946658,1.7807396451,0.4465880782\H,
 2.0591413502,2.4946764864,0.2007837698\O,2.5001919978,-0.2104846765,-1
 .7712599555\H,3.262636359,-0.7482607835,-2.0029644124\\Version=ES64L-G
 16RevB.01\State=1-A\HF=-866.6883199\RMSD=3.703e-09\RMSF=8.861e-04\Dipo
 le=0.1490637,-0.0382701,0.1855588\Quadrupole=2.3877723,-0.224819,-2.16
 29533,0.5022253,0.8280588,1.1550803\PG=C01 [X(H6O7Si1Zr1)]\\@


 WE HAVE LEFT UNDONE THOSE THINGS WHICH WE OUGHT TO HAVE DONE,
 AND WE HAVE DONE THOSE THINGS WHICH WE OUGHT NOT TO HAVE DONE.
                   BOOK OF COMMON PRAYER                      
 Job cpu time:       0 days  0 hours 27 minutes 17.4 seconds.
 Elapsed time:       0 days  0 hours  1 minutes 46.8 seconds.
 File lengths (MBytes):  RWF=     23 Int=      0 D2E=      0 Chk=      3 Scr=      1
 Normal termination of Gaussian 16 at Wed Jun 24 13:55:38 2020.
