15
	Energy: -543854.4718975
Si        -1.90698       -0.04093       -0.13187
O         -2.77661        1.33183       -0.36828
O         -2.96472       -1.30138       -0.09409
O         -0.62539       -0.32160       -1.09659
Zr         0.77223        0.01782        0.36514
H         -3.57833        1.23701       -0.89318
H         -2.59505       -2.14280       -0.38501
O         -1.07346        0.19403        1.32035
H         -1.20745        1.04108        1.76425
O          0.91297       -1.46148        1.65644
H          0.44596       -1.65354        2.47580
O          0.63880        1.81290        1.19600
H          1.29768        2.51602        1.17940
O          2.49039        0.01885       -0.56754
H          3.32580       -0.45283       -0.61601
