15
	Energy: -544130.6326571
Zr         1.37839       -0.01367       -0.01029
Si        -2.10397        0.27430       -0.00158
O         -0.57498       -0.28442        0.01654
O         -2.06439        1.76377        0.71454
O         -3.10875       -0.80851        0.75970
O         -2.75194        0.47775       -1.51038
H         -2.73485       -1.27591        1.51474
H         -3.19523       -0.29444       -1.87932
H         -2.84780        2.31155        0.59299
O          2.15239       -1.31312       -1.21960
H          2.65751       -1.85105       -1.82887
O          2.04402       -0.29207        1.78758
H          2.51011       -0.31610        2.62313
O          1.78195        1.77520       -0.61110
H          1.91399        2.68442       -0.87911
