15
	Energy: -544130.6326571
Zr         1.37839       -0.01367       -0.01029
Si        -2.20080       -0.36671        0.03161
O         -0.57498       -0.28442        0.01654
O         -2.73099        1.02112        0.75671
O         -2.68773       -1.75470        0.80491
O         -2.90735       -0.43438       -1.46303
H         -2.14582       -2.03806        1.54949
H         -3.02160       -1.31886       -1.82847
H         -3.66833        1.21957        0.65393
O          2.15239       -1.31312       -1.21960
H          2.65751       -1.85105       -1.82887
O          2.04402       -0.29207        1.78758
H          2.51011       -0.31610        2.62313
O          1.78195        1.77520       -0.61110
H          1.91399        2.68442       -0.87911
