 Entering Gaussian System, Link 0=g16
 Initial command:
 /opt/software/gaussian/g16.b01/l1.exe "/localscratch/sarashs.35132328.0/Gau-645.inp" -scrdir="/localscratch/sarashs.35132328.0/"
 Entering Link 1 = /opt/software/gaussian/g16.b01/l1.exe PID=       646.
  
 Copyright (c) 1988-2017, Gaussian, Inc.  All Rights Reserved.
  
 This is part of the Gaussian(R) 16 program.  It is based on
 the Gaussian(R) 09 system (copyright 2009, Gaussian, Inc.),
 the Gaussian(R) 03 system (copyright 2003, Gaussian, Inc.),
 the Gaussian(R) 98 system (copyright 1998, Gaussian, Inc.),
 the Gaussian(R) 94 system (copyright 1995, Gaussian, Inc.),
 the Gaussian 92(TM) system (copyright 1992, Gaussian, Inc.),
 the Gaussian 90(TM) system (copyright 1990, Gaussian, Inc.),
 the Gaussian 88(TM) system (copyright 1988, Gaussian, Inc.),
 the Gaussian 86(TM) system (copyright 1986, Carnegie Mellon
 University), and the Gaussian 82(TM) system (copyright 1983,
 Carnegie Mellon University). Gaussian is a federally registered
 trademark of Gaussian, Inc.
  
 This software contains proprietary and confidential information,
 including trade secrets, belonging to Gaussian, Inc.
  
 This software is provided under written license and may be
 used, copied, transmitted, or stored only in accord with that
 written license.
  
 The following legend is applicable only to US Government
 contracts under FAR:
  
                    RESTRICTED RIGHTS LEGEND
  
 Use, reproduction and disclosure by the US Government is
 subject to restrictions as set forth in subparagraphs (a)
 and (c) of the Commercial Computer Software - Restricted
 Rights clause in FAR 52.227-19.
  
 Gaussian, Inc.
 340 Quinnipiac St., Bldg. 40, Wallingford CT 06492
  
  
 ---------------------------------------------------------------
 Warning -- This program may not be used in any manner that
 competes with the business of Gaussian, Inc. or will provide
 assistance to any competitor of Gaussian, Inc.  The licensee
 of this program is prohibited from giving any competitor of
 Gaussian, Inc. access to this program.  By using this program,
 the user acknowledges that Gaussian, Inc. is engaged in the
 business of creating and licensing software in the field of
 computational chemistry and represents and warrants to the
 licensee that it is not a competitor of Gaussian, Inc. and that
 it will not use this program in any manner prohibited above.
 ---------------------------------------------------------------
  

 Cite this work as:
 Gaussian 16, Revision B.01,
 M. J. Frisch, G. W. Trucks, H. B. Schlegel, G. E. Scuseria, 
 M. A. Robb, J. R. Cheeseman, G. Scalmani, V. Barone, 
 G. A. Petersson, H. Nakatsuji, X. Li, M. Caricato, A. V. Marenich, 
 J. Bloino, B. G. Janesko, R. Gomperts, B. Mennucci, H. P. Hratchian, 
 J. V. Ortiz, A. F. Izmaylov, J. L. Sonnenberg, D. Williams-Young, 
 F. Ding, F. Lipparini, F. Egidi, J. Goings, B. Peng, A. Petrone, 
 T. Henderson, D. Ranasinghe, V. G. Zakrzewski, J. Gao, N. Rega, 
 G. Zheng, W. Liang, M. Hada, M. Ehara, K. Toyota, R. Fukuda, 
 J. Hasegawa, M. Ishida, T. Nakajima, Y. Honda, O. Kitao, H. Nakai, 
 T. Vreven, K. Throssell, J. A. Montgomery, Jr., J. E. Peralta, 
 F. Ogliaro, M. J. Bearpark, J. J. Heyd, E. N. Brothers, K. N. Kudin, 
 V. N. Staroverov, T. A. Keith, R. Kobayashi, J. Normand, 
 K. Raghavachari, A. P. Rendell, J. C. Burant, S. S. Iyengar, 
 J. Tomasi, M. Cossi, J. M. Millam, M. Klene, C. Adamo, R. Cammi, 
 J. W. Ochterski, R. L. Martin, K. Morokuma, O. Farkas, 
 J. B. Foresman, and D. J. Fox, Gaussian, Inc., Wallingford CT, 2016.
 
 ******************************************
 Gaussian 16:  ES64L-G16RevB.01 20-Dec-2017
                15-Jul-2020 
 ******************************************
 %NProcShared=16
 Will use up to   16 processors via shared memory.
 ------------------------------------------------------------------
 #n B3LYP/Gen Pseudo=cards EmpiricalDispersion=GD3 Opt=modredundant
 ------------------------------------------------------------------
 1/18=120,19=15,26=3,38=1/1,3;
 2/9=110,12=2,17=6,18=5,40=1/2;
 3/5=7,11=2,16=1,17=8,25=1,30=1,71=1,74=-5,124=31/1,2,3;
 4//1;
 5/5=2,38=5/2;
 6/7=2,8=2,9=2,10=2,28=1/1;
 7//1,2,3,16;
 1/18=20,19=15,26=3/3(2);
 2/9=110/2;
 99//99;
 2/9=110/2;
 3/5=7,6=1,11=2,16=1,17=8,25=1,30=1,71=1,74=-5,82=7,124=31/1,2,3;
 4/5=5,16=3,69=1/1;
 5/5=2,38=5/2;
 7//1,2,3,16;
 1/18=20,19=15,26=3/3(-5);
 2/9=110/2;
 6/7=2,8=2,9=2,10=2,19=2,28=1/1;
 99/9=1/99;
 -----
 Title
 -----
 Symbolic Z-matrix:
 Charge =  0 Multiplicity = 1
 Zr                    1.37839  -0.01367  -0.01029 
 Si                   -2.13112   0.19363   0.0027 
 O                    -0.57498  -0.28442   0.01654 
 O                    -2.16755   1.68293   0.71933 
 O                    -3.07591  -0.94044   0.76617 
 O                    -2.79286   0.36336  -1.5043 
 H                    -2.67608  -1.38786   1.52003 
 H                    -3.19617  -0.43085  -1.87239 
 H                    -2.97883   2.18905   0.60009 
 O                     2.15239  -1.31312  -1.2196 
 H                     2.65751  -1.85105  -1.82887 
 O                     2.04402  -0.29207   1.78758 
 H                     2.51011  -0.3161    2.62313 
 O                     1.78195   1.7752   -0.6111 
 H                     1.91399   2.68442  -0.87911 
 
 The following ModRedundant input section has been read:
 A       1       2       3 F                                                   
 

 GradGradGradGradGradGradGradGradGradGradGradGradGradGradGradGradGradGrad
 Berny optimization.
 Initialization pass.
                           ----------------------------
                           !    Initial Parameters    !
                           ! (Angstroms and Degrees)  !
 --------------------------                            --------------------------
 ! Name  Definition              Value          Derivative Info.                !
 --------------------------------------------------------------------------------
 ! R1    R(1,3)                  1.9722         estimate D2E/DX2                !
 ! R2    R(1,10)                 1.9365         estimate D2E/DX2                !
 ! R3    R(1,12)                 1.9372         estimate D2E/DX2                !
 ! R4    R(1,14)                 1.9297         estimate D2E/DX2                !
 ! R5    R(2,3)                  1.628          estimate D2E/DX2                !
 ! R6    R(2,4)                  1.6531         estimate D2E/DX2                !
 ! R7    R(2,5)                  1.6618         estimate D2E/DX2                !
 ! R8    R(2,6)                  1.6546         estimate D2E/DX2                !
 ! R9    R(4,9)                  0.9636         estimate D2E/DX2                !
 ! R10   R(5,7)                  0.9635         estimate D2E/DX2                !
 ! R11   R(6,8)                  0.9638         estimate D2E/DX2                !
 ! R12   R(10,11)                0.9569         estimate D2E/DX2                !
 ! R13   R(12,13)                0.9571         estimate D2E/DX2                !
 ! R14   R(14,15)                0.9571         estimate D2E/DX2                !
 ! A1    A(3,1,10)             108.1944         estimate D2E/DX2                !
 ! A2    A(3,1,12)             107.9362         estimate D2E/DX2                !
 ! A3    A(3,1,14)             109.793          estimate D2E/DX2                !
 ! A4    A(10,1,12)            110.2299         estimate D2E/DX2                !
 ! A5    A(10,1,14)            110.1226         estimate D2E/DX2                !
 ! A6    A(12,1,14)            110.5061         estimate D2E/DX2                !
 ! A7    A(1,2,3)               13.7144         Frozen                          !
 ! A8    A(3,2,4)              106.375          estimate D2E/DX2                !
 ! A9    A(3,2,5)              109.8247         estimate D2E/DX2                !
 ! A10   A(3,2,6)              114.8443         estimate D2E/DX2                !
 ! A11   A(4,2,5)              113.7725         estimate D2E/DX2                !
 ! A12   A(4,2,6)              107.0732         estimate D2E/DX2                !
 ! A13   A(5,2,6)              105.133          estimate D2E/DX2                !
 ! A14   A(1,3,2)              155.0001         estimate D2E/DX2                !
 ! A15   A(2,4,9)              115.9818         estimate D2E/DX2                !
 ! A16   A(2,5,7)              116.131          estimate D2E/DX2                !
 ! A17   A(2,6,8)              115.5099         estimate D2E/DX2                !
 ! A18   L(1,10,11,8,-1)       186.957          estimate D2E/DX2                !
 ! A19   L(1,12,13,7,-1)       190.4079         estimate D2E/DX2                !
 ! A20   L(1,14,15,4,-1)       175.4093         estimate D2E/DX2                !
 ! A21   L(1,10,11,8,-2)       172.3324         estimate D2E/DX2                !
 ! A22   L(1,12,13,7,-2)       184.4129         estimate D2E/DX2                !
 ! A23   L(1,14,15,4,-2)       179.2502         estimate D2E/DX2                !
 ! D1    D(10,1,3,2)          -136.4114         estimate D2E/DX2                !
 ! D2    D(12,1,3,2)           104.3159         estimate D2E/DX2                !
 ! D3    D(14,1,3,2)           -16.2022         estimate D2E/DX2                !
 ! D4    D(4,2,3,1)            -29.9124         estimate D2E/DX2                !
 ! D5    D(5,2,3,1)           -153.4546         estimate D2E/DX2                !
 ! D6    D(6,2,3,1)             88.3339         estimate D2E/DX2                !
 ! D7    D(3,2,4,9)            165.9161         estimate D2E/DX2                !
 ! D8    D(5,2,4,9)            -73.0406         estimate D2E/DX2                !
 ! D9    D(6,2,4,9)             42.662          estimate D2E/DX2                !
 ! D10   D(3,2,5,7)             35.3298         estimate D2E/DX2                !
 ! D11   D(4,2,5,7)            -83.7656         estimate D2E/DX2                !
 ! D12   D(6,2,5,7)            159.3969         estimate D2E/DX2                !
 ! D13   D(3,2,6,8)             88.6228         estimate D2E/DX2                !
 ! D14   D(4,2,6,8)           -153.5246         estimate D2E/DX2                !
 ! D15   D(5,2,6,8)            -32.1991         estimate D2E/DX2                !
 --------------------------------------------------------------------------------
 Trust Radius=3.00D-01 FncErr=1.00D-07 GrdErr=1.00D-06 EigMax=2.50D+02 EigMin=1.00D-04
 Number of steps in this run=     62 maximum allowed number of steps=    100.
 GradGradGradGradGradGradGradGradGradGradGradGradGradGradGradGradGradGrad

                          Input orientation:                          
 ---------------------------------------------------------------------
 Center     Atomic      Atomic             Coordinates (Angstroms)
 Number     Number       Type             X           Y           Z
 ---------------------------------------------------------------------
      1         40           0        1.378390   -0.013670   -0.010290
      2         14           0       -2.131120    0.193630    0.002700
      3          8           0       -0.574980   -0.284420    0.016540
      4          8           0       -2.167550    1.682930    0.719330
      5          8           0       -3.075910   -0.940440    0.766170
      6          8           0       -2.792860    0.363360   -1.504300
      7          1           0       -2.676080   -1.387860    1.520030
      8          1           0       -3.196170   -0.430850   -1.872390
      9          1           0       -2.978830    2.189050    0.600090
     10          8           0        2.152390   -1.313120   -1.219600
     11          1           0        2.657510   -1.851050   -1.828870
     12          8           0        2.044020   -0.292070    1.787580
     13          1           0        2.510110   -0.316100    2.623130
     14          8           0        1.781950    1.775200   -0.611100
     15          1           0        1.913990    2.684420   -0.879110
 ---------------------------------------------------------------------
                    Distance matrix (angstroms):
                    1          2          3          4          5
     1  Zr   0.000000
     2  Si   3.515651   0.000000
     3  O    1.972227   1.627973   0.000000
     4  O    3.998060   1.653149   2.626911   0.000000
     5  O    4.615472   1.661815   2.692018   2.776577   0.000000
     6  O    4.446745   1.654617   2.766146   2.660227   2.633448
     7  H    4.546318   2.258403   2.809392   3.213950   0.963511
     8  H    4.956617   2.245054   3.234213   3.499020   2.690008
     9  H    4.920356   2.248819   3.498154   0.963613   3.135397
    10  O    1.936512   4.702422   3.166198   5.603360   5.605113
    11  H    2.884328   5.519632   4.038423   6.501042   6.358895
    12  O    1.937242   4.566563   3.161614   4.772746   5.260926
    13  H    2.882214   5.354203   4.038947   5.431490   5.919605
    14  O    1.929738   4.265001   3.192348   4.168586   5.733269
    15  H    2.884685   4.831619   3.976326   4.496328   6.383233
                    6          7          8          9         10
     6  O    0.000000
     7  H    3.496710   0.000000
     8  H    0.963804   3.562987   0.000000
     9  H    2.792165   3.705703   3.608915   0.000000
    10  O    5.229449   5.552052   5.460003   6.473476   0.000000
    11  H    5.891985   6.314813   6.023656   7.347828   0.956935
    12  O    5.887399   4.853008   6.393296   5.726702   3.177644
    13  H    6.754172   5.409442   7.265294   6.363720   3.986049
    14  O    4.870317   5.866915   5.589203   4.929836   3.169419
    15  H    5.285132   6.588481   6.066733   5.135476   4.019091
                   11         12         13         14         15
    11  H    0.000000
    12  O    3.985662   0.000000
    13  H    4.711486   0.957059   0.000000
    14  O    3.924189   3.177413   3.919693   0.000000
    15  H    4.693118   3.998454   4.650179   0.957050   0.000000
 Stoichiometry    H6O7SiZr
 Framework group  C1[X(H6O7SiZr)]
 Deg. of freedom    39
 Full point group                 C1      NOp   1
 Largest Abelian subgroup         C1      NOp   1
 Largest concise Abelian subgroup C1      NOp   1
                         Standard orientation:                         
 ---------------------------------------------------------------------
 Center     Atomic      Atomic             Coordinates (Angstroms)
 Number     Number       Type             X           Y           Z
 ---------------------------------------------------------------------
      1         40           0        1.361247   -0.020560   -0.011693
      2         14           0       -2.154273   -0.039832    0.011797
      3          8           0       -0.570736   -0.416942   -0.010471
      4          8           0       -2.283316    1.380943    0.847049
      5          8           0       -3.022084   -1.290258    0.678857
      6          8           0       -2.830638    0.209096   -1.477606
      7          1           0       -2.591923   -1.770954    1.394571
      8          1           0       -3.183646   -0.576746   -1.909761
      9          1           0       -3.125670    1.842163    0.767886
     10          8           0        2.212542   -1.165319   -1.321235
     11          1           0        2.748912   -1.618574   -1.971306
     12          8           0        2.049428   -0.400956    1.758791
     13          1           0        2.518947   -0.462930    2.590459
     14          8           0        1.647665    1.833336   -0.464378
     15          1           0        1.720443    2.767899   -0.657356
 ---------------------------------------------------------------------
 Rotational constants (GHZ):           1.6396756           0.4845623           0.4825823
 General basis read from cards:  (5D, 7F)
 ======================================================================================================
                                       Pseudopotential Parameters
 ======================================================================================================
  Center     Atomic      Valence      Angular      Power
  Number     Number     Electrons     Momentum     of R      Exponent        Coefficient   SO-Coeffient
 ======================================================================================================
    1         40           12
                                      G and up 
                                                     2        1.0000000        0.00000000    0.00000000
                                      S - G
                                                     2        8.6365280      150.24299400    0.00000000
                                                     2        3.7176390       18.78003600    0.00000000
                                      P - G
                                                     2        7.6267280       33.19279100    0.00000000
                                                     2        7.4532070       66.38903900    0.00000000
                                                     2        3.3583890        4.62072600    0.00000000
                                                     2        3.2297380        9.26027000    0.00000000
                                      D - G
                                                     2        5.9380860       13.99338300    0.00000000
                                                     2        5.8255440       20.99588200    0.00000000
                                                     2        2.2050190        2.28516600    0.00000000
                                                     2        2.2062920        3.44126000    0.00000000
                                      F - G
                                                     2        4.8002150       -5.23932000    0.00000000
                                                     2        4.7989920       -6.98742400    0.00000000
    2         14
                                   No pseudopotential on this center.
    3          8
                                   No pseudopotential on this center.
    4          8
                                   No pseudopotential on this center.
    5          8
                                   No pseudopotential on this center.
    6          8
                                   No pseudopotential on this center.
    7          1
                                   No pseudopotential on this center.
    8          1
                                   No pseudopotential on this center.
    9          1
                                   No pseudopotential on this center.
   10          8
                                   No pseudopotential on this center.
   11          1
                                   No pseudopotential on this center.
   12          8
                                   No pseudopotential on this center.
   13          1
                                   No pseudopotential on this center.
   14          8
                                   No pseudopotential on this center.
   15          1
                                   No pseudopotential on this center.
 ======================================================================================================
 There are   300 symmetry adapted cartesian basis functions of A   symmetry.
 There are   266 symmetry adapted basis functions of A   symmetry.
   266 basis functions,   576 primitive gaussians,   300 cartesian basis functions
    44 alpha electrons       44 beta electrons
       nuclear repulsion energy       634.3744004948 Hartrees.
 NAtoms=   15 NActive=   15 NUniq=   15 SFac= 1.00D+00 NAtFMM=   60 NAOKFM=F Big=F
 Integral buffers will be    131072 words long.
 Raffenetti 2 integral format.
 Two-electron integral symmetry is turned on.
 Nuclear repulsion after empirical dispersion term =      634.3641087114 Hartrees.
 One-electron integrals computed using PRISM.
 PrsmSu:  requested number of processors reduced to:   4 ShMem   1 Linda.
   1 Symmetry operations used in ECPInt.
 ECPInt:  NShTT=    3321 NPrTT=   20810 LenC2=    3178 LenP2D=   15051.
 LDataN:  DoStor=T MaxTD1= 8 Len=  415
 NBasis=   266 RedAO= T EigKep=  1.04D-04  NBF=   266
 NBsUse=   266 1.00D-06 EigRej= -1.00D+00 NBFU=   266
 Defaulting to unpruned grid for atomic number  40.
 ExpMin= 1.01D-02 ExpMax= 1.61D+04 ExpMxC= 2.43D+03 IAcc=3 IRadAn=         5 AccDes= 0.00D+00
 Harris functional with IExCor=  402 and IRadAn=       5 diagonalized for initial guess.
 HarFok:  IExCor=  402 AccDes= 0.00D+00 IRadAn=         5 IDoV= 1 UseB2=F ITyADJ=14
 ICtDFT=  3500011 ScaDFX=  1.000000  1.000000  1.000000  1.000000
 Defaulting to unpruned grid for atomic number  40.
 FoFCou: FMM=F IPFlag=           0 FMFlag=      100000 FMFlg1=           0
         NFxFlg=           0 DoJE=T BraDBF=F KetDBF=T FulRan=T
         wScrn=  0.000000 ICntrl=       500 IOpCl=  0 I1Cent=   200000004 NGrid=           0
         NMat0=    1 NMatS0=      1 NMatT0=    0 NMatD0=    1 NMtDS0=    0 NMtDT0=    0
 Petite list used in FoFCou.
 Requested convergence on RMS density matrix=1.00D-08 within 128 cycles.
 Requested convergence on MAX density matrix=1.00D-06.
 Requested convergence on             energy=1.00D-06.
 No special actions if energy rises.
 Defaulting to unpruned grid for atomic number  40.
 Defaulting to unpruned grid for atomic number  40.
 Defaulting to unpruned grid for atomic number  40.
 Defaulting to unpruned grid for atomic number  40.
 Defaulting to unpruned grid for atomic number  40.
 Defaulting to unpruned grid for atomic number  40.
 Defaulting to unpruned grid for atomic number  40.
 Defaulting to unpruned grid for atomic number  40.
 Defaulting to unpruned grid for atomic number  40.
 Defaulting to unpruned grid for atomic number  40.
 Defaulting to unpruned grid for atomic number  40.
 Defaulting to unpruned grid for atomic number  40.
 Defaulting to unpruned grid for atomic number  40.
 Defaulting to unpruned grid for atomic number  40.
 Defaulting to unpruned grid for atomic number  40.
 Defaulting to unpruned grid for atomic number  40.
 SCF Done:  E(RB3LYP) =  -867.127752094     A.U. after   13 cycles
            NFock= 13  Conv=0.41D-08     -V/T= 2.0439

 **********************************************************************

            Population analysis using the SCF Density.

 **********************************************************************

 Orbital symmetries:
       Occupied  (A) (A) (A) (A) (A) (A) (A) (A) (A) (A) (A) (A)
                 (A) (A) (A) (A) (A) (A) (A) (A) (A) (A) (A) (A)
                 (A) (A) (A) (A) (A) (A) (A) (A) (A) (A) (A) (A)
                 (A) (A) (A) (A) (A) (A) (A) (A)
       Virtual   (A) (A) (A) (A) (A) (A) (A) (A) (A) (A) (A) (A)
                 (A) (A) (A) (A) (A) (A) (A) (A) (A) (A) (A) (A)
                 (A) (A) (A) (A) (A) (A) (A) (A) (A) (A) (A) (A)
                 (A) (A) (A) (A) (A) (A) (A) (A) (A) (A) (A) (A)
                 (A) (A) (A) (A) (A) (A) (A) (A) (A) (A) (A) (A)
                 (A) (A) (A) (A) (A) (A) (A) (A) (A) (A) (A) (A)
                 (A) (A) (A) (A) (A) (A) (A) (A) (A) (A) (A) (A)
                 (A) (A) (A) (A) (A) (A) (A) (A) (A) (A) (A) (A)
                 (A) (A) (A) (A) (A) (A) (A) (A) (A) (A) (A) (A)
                 (A) (A) (A) (A) (A) (A) (A) (A) (A) (A) (A) (A)
                 (A) (A) (A) (A) (A) (A) (A) (A) (A) (A) (A) (A)
                 (A) (A) (A) (A) (A) (A) (A) (A) (A) (A) (A) (A)
                 (A) (A) (A) (A) (A) (A) (A) (A) (A) (A) (A) (A)
                 (A) (A) (A) (A) (A) (A) (A) (A) (A) (A) (A) (A)
                 (A) (A) (A) (A) (A) (A) (A) (A) (A) (A) (A) (A)
                 (A) (A) (A) (A) (A) (A) (A) (A) (A) (A) (A) (A)
                 (A) (A) (A) (A) (A) (A) (A) (A) (A) (A) (A) (A)
                 (A) (A) (A) (A) (A) (A) (A) (A) (A) (A) (A) (A)
                 (A) (A) (A) (A) (A) (A)
 The electronic state is 1-A.
 Alpha  occ. eigenvalues --  -66.19962 -19.15210 -19.15191 -19.15028 -19.14339
 Alpha  occ. eigenvalues --  -19.14209 -19.14146 -19.13236  -5.34068  -3.70032
 Alpha  occ. eigenvalues --   -3.70025  -3.69989  -2.11143  -1.27458  -1.27347
 Alpha  occ. eigenvalues --   -1.27050  -1.02840  -0.99667  -0.99466  -0.96567
 Alpha  occ. eigenvalues --   -0.95357  -0.95292  -0.94152  -0.57493  -0.52322
 Alpha  occ. eigenvalues --   -0.51645  -0.50289  -0.49611  -0.49548  -0.45583
 Alpha  occ. eigenvalues --   -0.39634  -0.37724  -0.37344  -0.36043  -0.35611
 Alpha  occ. eigenvalues --   -0.34690  -0.34249  -0.33984  -0.32863  -0.32736
 Alpha  occ. eigenvalues --   -0.32013  -0.31248  -0.31188  -0.30733
 Alpha virt. eigenvalues --   -0.02890  -0.01289  -0.00668  -0.00534   0.00347
 Alpha virt. eigenvalues --    0.00432   0.01070   0.01222   0.01809   0.02363
 Alpha virt. eigenvalues --    0.02444   0.03014   0.03213   0.03325   0.03412
 Alpha virt. eigenvalues --    0.04277   0.04531   0.04665   0.05390   0.05738
 Alpha virt. eigenvalues --    0.06739   0.09124   0.09631   0.09873   0.10024
 Alpha virt. eigenvalues --    0.10225   0.11427   0.12432   0.13181   0.13865
 Alpha virt. eigenvalues --    0.14708   0.15514   0.16064   0.16539   0.17942
 Alpha virt. eigenvalues --    0.18075   0.18308   0.19188   0.19496   0.19834
 Alpha virt. eigenvalues --    0.20311   0.20500   0.21366   0.21839   0.22556
 Alpha virt. eigenvalues --    0.23678   0.24470   0.25193   0.26304   0.26654
 Alpha virt. eigenvalues --    0.27273   0.27392   0.27909   0.28323   0.28655
 Alpha virt. eigenvalues --    0.29013   0.29561   0.29813   0.29916   0.30968
 Alpha virt. eigenvalues --    0.31150   0.33018   0.34125   0.34665   0.35442
 Alpha virt. eigenvalues --    0.35759   0.36208   0.37077   0.38346   0.39134
 Alpha virt. eigenvalues --    0.42080   0.44132   0.44205   0.46784   0.47979
 Alpha virt. eigenvalues --    0.48841   0.49215   0.50237   0.51870   0.53219
 Alpha virt. eigenvalues --    0.54777   0.57066   0.58182   0.59864   0.60739
 Alpha virt. eigenvalues --    0.61671   0.62214   0.62695   0.64984   0.65779
 Alpha virt. eigenvalues --    0.67199   0.67865   0.70059   0.72572   0.73769
 Alpha virt. eigenvalues --    0.74650   0.75697   0.77535   0.78693   0.80839
 Alpha virt. eigenvalues --    0.85580   0.85756   0.96202   0.97809   0.98620
 Alpha virt. eigenvalues --    1.01830   1.02587   1.04353   1.05954   1.06676
 Alpha virt. eigenvalues --    1.07854   1.18794   1.19703   1.20736   1.21093
 Alpha virt. eigenvalues --    1.21545   1.23031   1.23629   1.23852   1.24430
 Alpha virt. eigenvalues --    1.25796   1.26840   1.28156   1.28636   1.28958
 Alpha virt. eigenvalues --    1.29818   1.30936   1.31380   1.31649   1.32998
 Alpha virt. eigenvalues --    1.33929   1.36809   1.42969   1.43311   1.45804
 Alpha virt. eigenvalues --    1.48823   1.52382   1.56202   1.59824   1.61038
 Alpha virt. eigenvalues --    1.61524   1.63152   1.63757   1.64879   1.67408
 Alpha virt. eigenvalues --    1.70266   1.70643   1.72178   1.73023   1.73062
 Alpha virt. eigenvalues --    1.73846   1.74338   1.75459   1.76876   1.77706
 Alpha virt. eigenvalues --    1.79774   1.80535   1.82872   1.83429   1.84559
 Alpha virt. eigenvalues --    1.86778   1.87361   1.90979   1.91243   1.91900
 Alpha virt. eigenvalues --    1.93107   1.94071   1.95538   1.96254   1.97282
 Alpha virt. eigenvalues --    1.98935   2.00182   2.01250   2.02523   2.07037
 Alpha virt. eigenvalues --    2.08586   2.09087   2.09944   2.13739   2.17481
 Alpha virt. eigenvalues --    2.19268   2.21034   2.22508   2.26151   2.31674
 Alpha virt. eigenvalues --    2.39389   2.42027   2.42576   2.43667   2.45507
 Alpha virt. eigenvalues --    2.50580   2.58326   2.60785   2.62396   2.63373
 Alpha virt. eigenvalues --    2.65106   2.67861   2.68461   2.68835   2.73157
 Alpha virt. eigenvalues --    2.79005   2.80495   2.81486   2.83805   2.87710
 Alpha virt. eigenvalues --    2.90265   2.91462   2.91618   2.92729   2.94234
 Alpha virt. eigenvalues --    2.99361   3.13571   3.46326   3.48545   3.51060
 Alpha virt. eigenvalues --    3.55109   3.59807   3.77948   4.13468   4.14924
 Alpha virt. eigenvalues --    4.18681  30.90894
          Condensed to atoms (all electrons):
               1          2          3          4          5          6
     1  Zr  10.470199   0.138074  -0.031150   0.007958  -0.085089  -0.038545
     2  Si   0.138074  12.965369  -0.705581  -0.078522  -0.163931   0.018710
     3  O   -0.031150  -0.705581   8.934237   0.102751   0.297186   0.091872
     4  O    0.007958  -0.078522   0.102751   8.569975  -0.031195   0.034815
     5  O   -0.085089  -0.163931   0.297186  -0.031195   8.555563   0.015333
     6  O   -0.038545   0.018710   0.091872   0.034815   0.015333   8.527497
     7  H   -0.004545   0.031017  -0.001448  -0.006348   0.239867   0.006714
     8  H    0.001611   0.058703  -0.021087   0.006282  -0.004961   0.233578
     9  H   -0.005236   0.035428   0.010887   0.225967  -0.005458  -0.005130
    10  O    0.024732  -0.010564  -0.025231   0.000627   0.001024   0.000875
    11  H   -0.087563   0.000564  -0.001033   0.000001   0.000001   0.000004
    12  O    0.029936  -0.011738  -0.025595   0.000005   0.001645   0.000155
    13  H   -0.086356   0.000714  -0.000735  -0.000003   0.000002   0.000001
    14  O    0.020991  -0.012748  -0.024661   0.003828   0.001021  -0.001589
    15  H   -0.089848   0.000842  -0.000263   0.000146   0.000003   0.000031
               7          8          9         10         11         12
     1  Zr  -0.004545   0.001611  -0.005236   0.024732  -0.087563   0.029936
     2  Si   0.031017   0.058703   0.035428  -0.010564   0.000564  -0.011738
     3  O   -0.001448  -0.021087   0.010887  -0.025231  -0.001033  -0.025595
     4  O   -0.006348   0.006282   0.225967   0.000627   0.000001   0.000005
     5  O    0.239867  -0.004961  -0.005458   0.001024   0.000001   0.001645
     6  O    0.006714   0.233578  -0.005130   0.000875   0.000004   0.000155
     7  H    0.370698   0.000055   0.000092   0.000010   0.000000  -0.000037
     8  H    0.000055   0.358440   0.000064  -0.000024   0.000000  -0.000006
     9  H    0.000092   0.000064   0.366057  -0.000002  -0.000000  -0.000012
    10  O    0.000010  -0.000024  -0.000002   8.615540   0.328278  -0.031863
    11  H    0.000000   0.000000  -0.000000   0.328278   0.382065  -0.000864
    12  O   -0.000037  -0.000006  -0.000012  -0.031863  -0.000864   8.610806
    13  H   -0.000000  -0.000000  -0.000000  -0.000750  -0.000008   0.325989
    14  O   -0.000004   0.000021  -0.000085  -0.036696  -0.001375  -0.037972
    15  H    0.000000  -0.000000  -0.000001  -0.000695  -0.000008  -0.000966
              13         14         15
     1  Zr  -0.086356   0.020991  -0.089848
     2  Si   0.000714  -0.012748   0.000842
     3  O   -0.000735  -0.024661  -0.000263
     4  O   -0.000003   0.003828   0.000146
     5  O    0.000002   0.001021   0.000003
     6  O    0.000001  -0.001589   0.000031
     7  H   -0.000000  -0.000004   0.000000
     8  H   -0.000000   0.000021  -0.000000
     9  H   -0.000000  -0.000085  -0.000001
    10  O   -0.000750  -0.036696  -0.000695
    11  H   -0.000008  -0.001375  -0.000008
    12  O    0.325989  -0.037972  -0.000966
    13  H    0.382306  -0.001535  -0.000011
    14  O   -0.001535   8.610708   0.331632
    15  H   -0.000011   0.331632   0.378595
 Mulliken charges:
               1
     1  Zr   1.734833
     2  Si   1.733665
     3  O   -0.600148
     4  O   -0.836288
     5  O   -0.821011
     6  O   -0.884320
     7  H    0.363929
     8  H    0.367326
     9  H    0.377429
    10  O   -0.865262
    11  H    0.379938
    12  O   -0.859482
    13  H    0.380387
    14  O   -0.851537
    15  H    0.380542
 Sum of Mulliken charges =  -0.00000
 Mulliken charges with hydrogens summed into heavy atoms:
               1
     1  Zr   1.734833
     2  Si   1.733665
     3  O   -0.600148
     4  O   -0.458859
     5  O   -0.457082
     6  O   -0.516994
    10  O   -0.485324
    12  O   -0.479095
    14  O   -0.470995
 Electronic spatial extent (au):  <R**2>=           2216.2528
 Charge=             -0.0000 electrons
 Dipole moment (field-independent basis, Debye):
    X=              1.6588    Y=             -0.3854    Z=              0.2573  Tot=              1.7223
 Quadrupole moment (field-independent basis, Debye-Ang):
   XX=            -69.0109   YY=            -68.0795   ZZ=            -67.8919
   XY=             -0.5779   XZ=             -0.0425   YZ=              0.5417
 Traceless Quadrupole moment (field-independent basis, Debye-Ang):
   XX=             -0.6835   YY=              0.2480   ZZ=              0.4355
   XY=             -0.5779   XZ=             -0.0425   YZ=              0.5417
 Octapole moment (field-independent basis, Debye-Ang**2):
  XXX=             53.4391  YYY=             18.8383  ZZZ=              8.3161  XYY=             16.4353
  XXY=              6.3962  XXZ=             -2.4460  XZZ=             27.5250  YZZ=            -20.2911
  YYZ=             -5.2725  XYZ=             -3.2522
 Hexadecapole moment (field-independent basis, Debye-Ang**3):
 XXXX=          -1878.6708 YYYY=           -338.0410 ZZZZ=           -346.7389 XXXY=            -99.1193
 XXXZ=             16.5884 YYYX=             14.3485 YYYZ=            -19.1752 ZZZX=             33.2679
 ZZZY=              8.2813 XXYY=           -339.6736 XXZZ=           -300.3411 YYZZ=           -119.3208
 XXYZ=             52.9582 YYXZ=            -37.8803 ZZXY=              8.1986
 N-N= 6.343641087114D+02 E-N=-3.306289066184D+03  KE= 8.306906664313D+02
 PrsmSu:  requested number of processors reduced to:   2 ShMem   1 Linda.
 PrsmSu:  requested number of processors reduced to:  10 ShMem   1 Linda.
   1 Symmetry operations used in ECPInt.
 ECPInt:  NShTT=    3321 NPrTT=   20810 LenC2=    3178 LenP2D=   15051.
 LDataN:  DoStor=T MaxTD1= 9 Len=  602
 Calling FoFJK, ICntrl=      2127 FMM=F ISym2X=0 I1Cent= 0 IOpClX= 0 NMat=1 NMatS=1 NMatT=0.
 CoulSu:  requested number of processors reduced to:  10 ShMem   1 Linda.
 Defaulting to unpruned grid for atomic number  40.
 Defaulting to unpruned grid for atomic number  40.
 Defaulting to unpruned grid for atomic number  40.
 Defaulting to unpruned grid for atomic number  40.
 Defaulting to unpruned grid for atomic number  40.
 Defaulting to unpruned grid for atomic number  40.
 Defaulting to unpruned grid for atomic number  40.
 Defaulting to unpruned grid for atomic number  40.
 Defaulting to unpruned grid for atomic number  40.
 Defaulting to unpruned grid for atomic number  40.
 Defaulting to unpruned grid for atomic number  40.
 Defaulting to unpruned grid for atomic number  40.
 Defaulting to unpruned grid for atomic number  40.
 Defaulting to unpruned grid for atomic number  40.
 Defaulting to unpruned grid for atomic number  40.
 Defaulting to unpruned grid for atomic number  40.
 ***** Axes restored to original set *****
 -------------------------------------------------------------------
 Center     Atomic                   Forces (Hartrees/Bohr)
 Number     Number              X              Y              Z
 -------------------------------------------------------------------
      1       40           0.001895578    0.000206337    0.000123021
      2       14          -0.000837962   -0.001149786   -0.000013235
      3        8          -0.000998019    0.000597765   -0.000133575
      4        8          -0.000006414    0.000362147    0.000076958
      5        8           0.000087548    0.000231757   -0.000056081
      6        8          -0.000016217    0.000141044   -0.000015639
      7        1           0.000052829   -0.000059592   -0.000034965
      8        1           0.000017574    0.000003980    0.000007172
      9        1           0.000007952    0.000063193    0.000046948
     10        8          -0.000047313   -0.000096240   -0.000087103
     11        1          -0.000009029    0.000005564    0.000021551
     12        8           0.000017649    0.000029700    0.000072986
     13        1          -0.000017338   -0.000009591   -0.000023060
     14        8          -0.000121764   -0.000328377   -0.000046989
     15        1          -0.000025073    0.000002098    0.000062009
 -------------------------------------------------------------------
 Cartesian Forces:  Max     0.001895578 RMS     0.000406590

 GradGradGradGradGradGradGradGradGradGradGradGradGradGradGradGradGradGrad
 Berny optimization.
 FormGI is forming the generalized inverse of G from B-inverse, IUseBI=4.
 Internal  Forces:  Max     0.001666953 RMS     0.000327301
 Search for a local minimum.
 Step number   1 out of a maximum of   62
 All quantities printed in internal units (Hartrees-Bohrs-Radians)
 Mixed Optimization -- En-DIIS/RFO-DIIS
 Second derivative matrix not updated -- first step.
 ITU=  0
     Eigenvalues ---    0.00230   0.01596   0.01596   0.01597   0.01597
     Eigenvalues ---    0.01598   0.01598   0.03521   0.03617   0.03636
     Eigenvalues ---    0.03969   0.11780   0.12039   0.12694   0.15564
     Eigenvalues ---    0.15873   0.16000   0.16000   0.16000   0.19507
     Eigenvalues ---    0.20181   0.21252   0.21482   0.21527   0.21945
     Eigenvalues ---    0.25000   0.25000   0.25000   0.40908   0.41957
     Eigenvalues ---    0.42176   0.46080   0.54663   0.54703   0.54725
     Eigenvalues ---    0.56111   0.56113   0.561381000.000001000.00000
     Eigenvalues --- 1000.000001000.000001000.000001000.000001000.00000
     Eigenvalues --- 1000.000001000.000001000.000001000.000001000.00000
     Eigenvalues --- 1000.000001000.00000
 RFO step:  Lambda=-3.34663334D-05 EMin= 2.30000000D-03
 Linear search not attempted -- first point.
 Iteration  1 RMS(Cart)=  0.04278589 RMS(Int)=  0.00033288
 Iteration  2 RMS(Cart)=  0.00054138 RMS(Int)=  0.00000020
 Iteration  3 RMS(Cart)=  0.00000005 RMS(Int)=  0.00000019
 Iteration  1 RMS(Cart)=  0.00000014 RMS(Int)=  0.00000005
 Variable       Old X    -DE/DX   Delta X   Delta X   Delta X     New X
                                 (Linear)    (Quad)   (Total)
    R1        3.72697   0.00167   0.00000   0.00885   0.00885   3.73582
    R2        3.65948   0.00008   0.00000   0.00037   0.00037   3.65984
    R3        3.66086   0.00004   0.00000   0.00020   0.00020   3.66106
    R4        3.64668  -0.00034   0.00000  -0.00154  -0.00154   3.64514
    R5        3.07642   0.00052   0.00000   0.00098   0.00098   3.07740
    R6        3.12400   0.00044   0.00000   0.00104   0.00104   3.12503
    R7        3.14038  -0.00024   0.00000  -0.00058  -0.00058   3.13979
    R8        3.12677   0.00002   0.00000   0.00005   0.00005   3.12683
    R9        1.82097   0.00002   0.00000   0.00004   0.00004   1.82100
   R10        1.82077   0.00002   0.00000   0.00004   0.00004   1.82081
   R11        1.82133  -0.00001   0.00000  -0.00002  -0.00002   1.82130
   R12        1.80835  -0.00002   0.00000  -0.00004  -0.00004   1.80831
   R13        1.80858  -0.00003   0.00000  -0.00005  -0.00005   1.80853
   R14        1.80856  -0.00002   0.00000  -0.00003  -0.00003   1.80853
    A1        1.88835  -0.00024   0.00000  -0.00101  -0.00101   1.88734
    A2        1.88384   0.00007   0.00000   0.00039   0.00039   1.88423
    A3        1.91625  -0.00021   0.00000  -0.00090  -0.00090   1.91535
    A4        1.92387   0.00012   0.00000   0.00058   0.00058   1.92445
    A5        1.92200   0.00011   0.00000   0.00023   0.00023   1.92223
    A6        1.92870   0.00013   0.00000   0.00066   0.00066   1.92936
    A7        0.23936  -0.00063   0.00000   0.00000  -0.00000   0.23936
    A8        1.85659  -0.00011   0.00000  -0.00083  -0.00083   1.85576
    A9        1.91680  -0.00001   0.00000   0.00014   0.00014   1.91694
   A10        2.00441   0.00010   0.00000   0.00054   0.00054   2.00495
   A11        1.98571   0.00007   0.00000   0.00028   0.00028   1.98599
   A12        1.86878  -0.00011   0.00000  -0.00073  -0.00073   1.86805
   A13        1.83492   0.00007   0.00000   0.00063   0.00063   1.83555
   A14        2.70526   0.00119   0.00000   0.00041   0.00041   2.70567
   A15        2.02426   0.00014   0.00000   0.00086   0.00086   2.02512
   A16        2.02687  -0.00003   0.00000  -0.00019  -0.00019   2.02668
   A17        2.01603  -0.00001   0.00000  -0.00009  -0.00009   2.01594
   A18        3.26302   0.00001   0.00000   0.00061   0.00061   3.26363
   A19        3.32324  -0.00001   0.00000  -0.00077  -0.00077   3.32248
   A20        3.06147  -0.00007   0.00000  -0.00456  -0.00456   3.05690
   A21        3.00777   0.00001   0.00000   0.00085   0.00085   3.00862
   A22        3.21861  -0.00001   0.00000  -0.00084  -0.00084   3.21777
   A23        3.12851  -0.00009   0.00000  -0.00553  -0.00553   3.12298
    D1       -2.38083  -0.00004   0.00000  -0.04378  -0.04378  -2.42461
    D2        1.82066  -0.00009   0.00000  -0.04413  -0.04413   1.77653
    D3       -0.28278  -0.00017   0.00000  -0.04464  -0.04464  -0.32742
    D4       -0.52207  -0.00002   0.00000  -0.00154  -0.00154  -0.52361
    D5       -2.67829  -0.00003   0.00000  -0.00144  -0.00144  -2.67973
    D6        1.54172  -0.00017   0.00000  -0.00270  -0.00270   1.53902
    D7        2.89578   0.00002   0.00000   0.00016   0.00016   2.89594
    D8       -1.27480  -0.00002   0.00000  -0.00008  -0.00008  -1.27488
    D9        0.74459   0.00002   0.00000   0.00038   0.00038   0.74498
   D10        0.61662  -0.00013   0.00000  -0.00191  -0.00191   0.61471
   D11       -1.46199  -0.00003   0.00000  -0.00113  -0.00113  -1.46311
   D12        2.78200   0.00003   0.00000  -0.00079  -0.00079   2.78121
   D13        1.54676   0.00008   0.00000   0.00054   0.00054   1.54730
   D14       -2.67951  -0.00008   0.00000  -0.00068  -0.00068  -2.68019
   D15       -0.56198  -0.00002   0.00000  -0.00039  -0.00039  -0.56237
         Item               Value     Threshold  Converged?
 Maximum Force            0.001727     0.000450     NO 
 RMS     Force            0.000276     0.000300     YES
 Maximum Displacement     0.112606     0.001800     NO 
 RMS     Displacement     0.042820     0.001200     NO 
 Predicted change in Energy=-1.683421D-05
 GradGradGradGradGradGradGradGradGradGradGradGradGradGradGradGradGradGrad

                          Input orientation:                          
 ---------------------------------------------------------------------
 Center     Atomic      Atomic             Coordinates (Angstroms)
 Number     Number       Type             X           Y           Z
 ---------------------------------------------------------------------
      1         40           0        1.381604   -0.013229   -0.015977
      2         14           0       -2.133170    0.193309    0.005895
      3          8           0       -0.576444   -0.284797    0.005770
      4          8           0       -2.168120    1.662789    0.763601
      5          8           0       -3.077336   -0.961064    0.738408
      6          8           0       -2.796032    0.406139   -1.495161
      7          1           0       -2.676348   -1.429954    1.478506
      8          1           0       -3.199855   -0.377168   -1.885355
      9          1           0       -2.978967    2.173002    0.659678
     10          8           0        2.160328   -1.334074   -1.199103
     11          1           0        2.668862   -1.884576   -1.794104
     12          8           0        2.038890   -0.259374    1.789767
     13          1           0        2.499026   -0.267031    2.628889
     14          8           0        1.785912    1.764111   -0.647122
     15          1           0        1.916509    2.670927   -0.923783
 ---------------------------------------------------------------------
                    Distance matrix (angstroms):
                    1          2          3          4          5
     1  Zr   0.000000
     2  Si   3.520905   0.000000
     3  O    1.976910   1.628490   0.000000
     4  O    4.002164   1.653697   2.626943   0.000000
     5  O    4.620566   1.661506   2.692314   2.777033   0.000000
     6  O    4.451572   1.654645   2.767084   2.659972   2.633857
     7  H    4.550556   2.258010   2.808902   3.214724   0.963532
     8  H    4.961531   2.245013   3.235300   3.498981   2.690739
     9  H    4.924499   2.249887   3.498640   0.963634   3.136597
    10  O    1.936706   4.713708   3.169010   5.618617   5.596982
    11  H    2.884564   5.533273   4.041145   6.520893   6.347069
    12  O    1.937350   4.559956   3.165954   4.737790   5.270056
    13  H    2.882424   5.343150   4.042226   5.383842   5.928862
    14  O    1.928924   4.272359   3.194530   4.199377   5.744341
    15  H    2.883561   4.837643   3.976831   4.532967   6.394742
                    6          7          8          9         10
     6  O    0.000000
     7  H    3.496892   0.000000
     8  H    0.963791   3.563422   0.000000
     9  H    2.792598   3.707202   3.609619   0.000000
    10  O    5.261321   5.529215   5.488003   6.493612   0.000000
    11  H    5.933111   6.283942   6.059905   7.374480   0.956915
    12  O    5.883037   4.868327   6.400378   5.689678   3.178532
    13  H    6.745264   5.427731   7.271023   6.311890   3.988335
    14  O    4.853604   5.884905   5.565623   4.957720   3.169167
    15  H    5.259637   6.609278   6.032635   5.169232   4.021850
                   11         12         13         14         15
    11  H    0.000000
    12  O    3.985257   0.000000
    13  H    4.712554   0.957032   0.000000
    14  O    3.925314   3.177565   3.919990   0.000000
    15  H    4.698521   3.995622   4.646762   0.957032   0.000000
 Stoichiometry    H6O7SiZr
 Framework group  C1[X(H6O7SiZr)]
 Deg. of freedom    39
 Full point group                 C1      NOp   1
 Largest Abelian subgroup         C1      NOp   1
 Largest concise Abelian subgroup C1      NOp   1
                         Standard orientation:                         
 ---------------------------------------------------------------------
 Center     Atomic      Atomic             Coordinates (Angstroms)
 Number     Number       Type             X           Y           Z
 ---------------------------------------------------------------------
      1         40           0        1.363605   -0.020544   -0.011448
      2         14           0       -2.157163   -0.040224    0.012550
      3          8           0       -0.573038   -0.417430   -0.002995
      4          8           0       -2.285448    1.394598    0.824673
      5          8           0       -3.024943   -1.279253    0.699839
      6          8           0       -2.833498    0.185843   -1.480539
      7          1           0       -2.594178   -1.748924    1.422504
      8          1           0       -3.186691   -0.606525   -1.900421
      9          1           0       -3.127362    1.855431    0.738632
     10          8           0        2.224287   -1.243627   -1.241946
     11          1           0        2.766519   -1.737799   -1.856326
     12          8           0        2.036753   -0.291603    1.784860
     13          1           0        2.497114   -0.301236    2.623838
     14          8           0        1.652856    1.801409   -0.574980
     15          1           0        1.724943    2.724447   -0.817295
 ---------------------------------------------------------------------
 Rotational constants (GHZ):           1.6394366           0.4836289           0.4816661
 Basis read from rwf:  (5D, 7F)
 Pseudo-potential data read from rwf file.
 There are   300 symmetry adapted cartesian basis functions of A   symmetry.
 There are   266 symmetry adapted basis functions of A   symmetry.
   266 basis functions,   576 primitive gaussians,   300 cartesian basis functions
    44 alpha electrons       44 beta electrons
       nuclear repulsion energy       634.0806995342 Hartrees.
 NAtoms=   15 NActive=   15 NUniq=   15 SFac= 1.00D+00 NAtFMM=   60 NAOKFM=F Big=F
 Integral buffers will be    131072 words long.
 Raffenetti 2 integral format.
 Two-electron integral symmetry is turned on.
 Nuclear repulsion after empirical dispersion term =      634.0704167236 Hartrees.
 One-electron integrals computed using PRISM.
 PrsmSu:  requested number of processors reduced to:   4 ShMem   1 Linda.
   1 Symmetry operations used in ECPInt.
 ECPInt:  NShTT=    3321 NPrTT=   20810 LenC2=    3182 LenP2D=   15049.
 LDataN:  DoStor=T MaxTD1= 8 Len=  415
 NBasis=   266 RedAO= T EigKep=  1.05D-04  NBF=   266
 NBsUse=   266 1.00D-06 EigRej= -1.00D+00 NBFU=   266
 Defaulting to unpruned grid for atomic number  40.
 Initial guess from the checkpoint file:  "/localscratch/sarashs.35132328.0/Gau-646.chk"
 B after Tr=    -0.000000   -0.000000   -0.000000
         Rot=    0.999767    0.021563    0.000758   -0.000000 Ang=   2.47 deg.
 ExpMin= 1.01D-02 ExpMax= 1.61D+04 ExpMxC= 2.43D+03 IAcc=3 IRadAn=         5 AccDes= 0.00D+00
 Harris functional with IExCor=  402 and IRadAn=       5 diagonalized for initial guess.
 HarFok:  IExCor=  402 AccDes= 0.00D+00 IRadAn=         5 IDoV= 1 UseB2=F ITyADJ=14
 ICtDFT=  3500011 ScaDFX=  1.000000  1.000000  1.000000  1.000000
 Defaulting to unpruned grid for atomic number  40.
 FoFCou: FMM=F IPFlag=           0 FMFlag=      100000 FMFlg1=           0
         NFxFlg=           0 DoJE=T BraDBF=F KetDBF=T FulRan=T
         wScrn=  0.000000 ICntrl=       500 IOpCl=  0 I1Cent=   200000004 NGrid=           0
         NMat0=    1 NMatS0=      1 NMatT0=    0 NMatD0=    1 NMtDS0=    0 NMtDT0=    0
 Petite list used in FoFCou.
 Requested convergence on RMS density matrix=1.00D-08 within 128 cycles.
 Requested convergence on MAX density matrix=1.00D-06.
 Requested convergence on             energy=1.00D-06.
 No special actions if energy rises.
 Defaulting to unpruned grid for atomic number  40.
 Defaulting to unpruned grid for atomic number  40.
 Defaulting to unpruned grid for atomic number  40.
 Defaulting to unpruned grid for atomic number  40.
 Defaulting to unpruned grid for atomic number  40.
 Defaulting to unpruned grid for atomic number  40.
 Defaulting to unpruned grid for atomic number  40.
 Defaulting to unpruned grid for atomic number  40.
 Defaulting to unpruned grid for atomic number  40.
 Defaulting to unpruned grid for atomic number  40.
 Defaulting to unpruned grid for atomic number  40.
 Defaulting to unpruned grid for atomic number  40.
 Defaulting to unpruned grid for atomic number  40.
 Defaulting to unpruned grid for atomic number  40.
 Defaulting to unpruned grid for atomic number  40.
 Defaulting to unpruned grid for atomic number  40.
 SCF Done:  E(RB3LYP) =  -867.127772980     A.U. after   10 cycles
            NFock= 10  Conv=0.32D-08     -V/T= 2.0439
 PrsmSu:  requested number of processors reduced to:   2 ShMem   1 Linda.
 PrsmSu:  requested number of processors reduced to:  10 ShMem   1 Linda.
   1 Symmetry operations used in ECPInt.
 ECPInt:  NShTT=    3321 NPrTT=   20810 LenC2=    3182 LenP2D=   15049.
 LDataN:  DoStor=T MaxTD1= 9 Len=  602
 Calling FoFJK, ICntrl=      2127 FMM=F ISym2X=0 I1Cent= 0 IOpClX= 0 NMat=1 NMatS=1 NMatT=0.
 CoulSu:  requested number of processors reduced to:  10 ShMem   1 Linda.
 Defaulting to unpruned grid for atomic number  40.
 Defaulting to unpruned grid for atomic number  40.
 Defaulting to unpruned grid for atomic number  40.
 Defaulting to unpruned grid for atomic number  40.
 Defaulting to unpruned grid for atomic number  40.
 Defaulting to unpruned grid for atomic number  40.
 Defaulting to unpruned grid for atomic number  40.
 Defaulting to unpruned grid for atomic number  40.
 Defaulting to unpruned grid for atomic number  40.
 Defaulting to unpruned grid for atomic number  40.
 Defaulting to unpruned grid for atomic number  40.
 Defaulting to unpruned grid for atomic number  40.
 Defaulting to unpruned grid for atomic number  40.
 Defaulting to unpruned grid for atomic number  40.
 Defaulting to unpruned grid for atomic number  40.
 Defaulting to unpruned grid for atomic number  40.
 ***** Axes restored to original set *****
 -------------------------------------------------------------------
 Center     Atomic                   Forces (Hartrees/Bohr)
 Number     Number              X              Y              Z
 -------------------------------------------------------------------
      1       40          -0.000166036   -0.000476123    0.000382908
      2       14          -0.000046785   -0.000781204    0.000055536
      3        8           0.000395484    0.000831823   -0.000177828
      4        8          -0.000036458    0.000196865    0.000027519
      5        8          -0.000031294    0.000110812    0.000014502
      6        8          -0.000052150    0.000077396   -0.000022512
      7        1           0.000044844   -0.000039774   -0.000062745
      8        1           0.000005736   -0.000007164   -0.000006971
      9        1           0.000019609    0.000004204    0.000025000
     10        8          -0.000095271    0.000051241    0.000060675
     11        1           0.000015706    0.000004322    0.000002506
     12        8          -0.000003476    0.000053130   -0.000260163
     13        1          -0.000014090   -0.000002214    0.000021773
     14        8          -0.000050340   -0.000065392   -0.000085019
     15        1           0.000014521    0.000042078    0.000024819
 -------------------------------------------------------------------
 Cartesian Forces:  Max     0.000831823 RMS     0.000214585

 GradGradGradGradGradGradGradGradGradGradGradGradGradGradGradGradGradGrad
 Berny optimization.
 Using GEDIIS/GDIIS optimizer.
 FormGI is forming the generalized inverse of G from B-inverse, IUseBI=4.
 Internal  Forces:  Max     0.000960304 RMS     0.000174706
 Search for a local minimum.
 Step number   2 out of a maximum of   62
 All quantities printed in internal units (Hartrees-Bohrs-Radians)
 Mixed Optimization -- En-DIIS/RFO-DIIS
 Swapping is turned off.
 Update second derivatives using D2CorX and points    1    2
 DE= -2.09D-05 DEPred=-1.68D-05 R= 1.24D+00
 TightC=F SS=  1.41D+00  RLast= 7.76D-02 DXNew= 5.0454D-01 2.3272D-01
 Trust test= 1.24D+00 RLast= 7.76D-02 DXMaxT set to 3.00D-01
 ITU=  1  0
     Eigenvalues ---    0.00126   0.01562   0.01596   0.01596   0.01598
     Eigenvalues ---    0.01598   0.01609   0.03492   0.03616   0.03636
     Eigenvalues ---    0.03927   0.11711   0.12018   0.12700   0.15449
     Eigenvalues ---    0.15863   0.15977   0.16000   0.16003   0.20043
     Eigenvalues ---    0.21036   0.21255   0.21517   0.21873   0.24491
     Eigenvalues ---    0.24862   0.25000   0.28658   0.40823   0.41850
     Eigenvalues ---    0.41987   0.47155   0.54664   0.54709   0.54731
     Eigenvalues ---    0.56111   0.56131   0.561461000.000001000.00000
     Eigenvalues --- 1000.000001000.000001000.000001000.000001000.00000
     Eigenvalues --- 1000.000001000.000001000.000001000.000001000.00000
     Eigenvalues --- 1000.000001000.00000
 En-DIIS/RFO-DIIS/Sim-DIIS IScMMF=       -3 using points:     2    1
 RFO step:  Lambda=-1.68382579D-05.
 DidBck=F Rises=F RFO-DIIS coefs:    2.40609   -1.40609
 Iteration  1 RMS(Cart)=  0.06088636 RMS(Int)=  0.00067305
 Iteration  2 RMS(Cart)=  0.00109485 RMS(Int)=  0.00000055
 Iteration  3 RMS(Cart)=  0.00000022 RMS(Int)=  0.00000054
 Iteration  1 RMS(Cart)=  0.00000055 RMS(Int)=  0.00000020
 Variable       Old X    -DE/DX   Delta X   Delta X   Delta X     New X
                                 (Linear)    (Quad)   (Total)
    R1        3.73582  -0.00034   0.01244  -0.01089   0.00156   3.73737
    R2        3.65984  -0.00011   0.00052  -0.00107  -0.00055   3.65929
    R3        3.66106  -0.00023   0.00029  -0.00170  -0.00142   3.65964
    R4        3.64514  -0.00001  -0.00216   0.00149  -0.00068   3.64446
    R5        3.07740  -0.00006   0.00137  -0.00134   0.00004   3.07744
    R6        3.12503   0.00020   0.00146  -0.00038   0.00108   3.12611
    R7        3.13979  -0.00008  -0.00082   0.00032  -0.00050   3.13929
    R8        3.12683   0.00005   0.00007   0.00013   0.00020   3.12703
    R9        1.82100  -0.00002   0.00005  -0.00008  -0.00003   1.82098
   R10        1.82081  -0.00001   0.00006  -0.00007  -0.00001   1.82080
   R11        1.82130   0.00001  -0.00003   0.00004   0.00001   1.82131
   R12        1.80831   0.00000  -0.00005   0.00005  -0.00001   1.80830
   R13        1.80853   0.00001  -0.00007   0.00008   0.00001   1.80854
   R14        1.80853   0.00003  -0.00005   0.00012   0.00007   1.80860
    A1        1.88734  -0.00012  -0.00142   0.00028  -0.00114   1.88620
    A2        1.88423   0.00021   0.00055   0.00090   0.00145   1.88568
    A3        1.91535  -0.00011  -0.00126   0.00028  -0.00099   1.91437
    A4        1.92445  -0.00001   0.00081  -0.00053   0.00028   1.92474
    A5        1.92223   0.00000   0.00032  -0.00049  -0.00017   1.92206
    A6        1.92936   0.00002   0.00093  -0.00038   0.00055   1.92991
    A7        0.23936  -0.00054  -0.00000   0.00000  -0.00000   0.23936
    A8        1.85576  -0.00004  -0.00117   0.00046  -0.00071   1.85505
    A9        1.91694   0.00000   0.00019   0.00004   0.00023   1.91717
   A10        2.00495   0.00008   0.00076   0.00008   0.00084   2.00580
   A11        1.98599   0.00004   0.00040  -0.00010   0.00030   1.98628
   A12        1.86805  -0.00007  -0.00103   0.00009  -0.00094   1.86711
   A13        1.83555  -0.00001   0.00088  -0.00058   0.00030   1.83585
   A14        2.70567   0.00096   0.00058  -0.00049   0.00008   2.70575
   A15        2.02512   0.00004   0.00121  -0.00048   0.00072   2.02585
   A16        2.02668  -0.00004  -0.00027  -0.00017  -0.00044   2.02623
   A17        2.01594   0.00000  -0.00013   0.00010  -0.00003   2.01591
   A18        3.26363   0.00003   0.00086   0.00183   0.00270   3.26633
   A19        3.32248  -0.00004  -0.00108  -0.00278  -0.00386   3.31862
   A20        3.05690  -0.00000  -0.00642   0.00423  -0.00219   3.05471
   A21        3.00862  -0.00001   0.00119  -0.00148  -0.00029   3.00833
   A22        3.21777   0.00001  -0.00118   0.00157   0.00038   3.21816
   A23        3.12298  -0.00006  -0.00777  -0.00004  -0.00781   3.11517
    D1       -2.42461  -0.00002  -0.06156  -0.00084  -0.06240  -2.48701
    D2        1.77653  -0.00006  -0.06204  -0.00086  -0.06291   1.71362
    D3       -0.32742  -0.00015  -0.06277  -0.00111  -0.06387  -0.39130
    D4       -0.52361  -0.00002  -0.00216   0.00019  -0.00198  -0.52558
    D5       -2.67973  -0.00004  -0.00202  -0.00000  -0.00203  -2.68176
    D6        1.53902  -0.00008  -0.00380   0.00066  -0.00314   1.53587
    D7        2.89594   0.00002   0.00022   0.00010   0.00032   2.89625
    D8       -1.27488   0.00002  -0.00011   0.00041   0.00030  -1.27458
    D9        0.74498  -0.00002   0.00054  -0.00031   0.00023   0.74521
   D10        0.61471  -0.00008  -0.00269  -0.00023  -0.00291   0.61180
   D11       -1.46311  -0.00006  -0.00159  -0.00078  -0.00237  -1.46548
   D12        2.78121   0.00001  -0.00111  -0.00047  -0.00157   2.77964
   D13        1.54730   0.00003   0.00076  -0.00037   0.00039   1.54770
   D14       -2.68019  -0.00003  -0.00096   0.00032  -0.00064  -2.68083
   D15       -0.56237  -0.00002  -0.00055  -0.00006  -0.00061  -0.56298
         Item               Value     Threshold  Converged?
 Maximum Force            0.000285     0.000450     YES
 RMS     Force            0.000084     0.000300     YES
 Maximum Displacement     0.158672     0.001800     NO 
 RMS     Displacement     0.060974     0.001200     NO 
 Predicted change in Energy=-8.521867D-06
 GradGradGradGradGradGradGradGradGradGradGradGradGradGradGradGradGradGrad

                          Input orientation:                          
 ---------------------------------------------------------------------
 Center     Atomic      Atomic             Coordinates (Angstroms)
 Number     Number       Type             X           Y           Z
 ---------------------------------------------------------------------
      1         40           0        1.382240   -0.012869   -0.023798
      2         14           0       -2.133342    0.192812    0.010721
      3          8           0       -0.576632   -0.284984   -0.009422
      4          8           0       -2.166412    1.631926    0.825864
      5          8           0       -3.077157   -0.988956    0.698008
      6          8           0       -2.798173    0.466326   -1.479713
      7          1           0       -2.674528   -1.488030    1.417174
      8          1           0       -3.202844   -0.300460   -1.900642
      9          1           0       -2.976844    2.146709    0.743644
     10          8           0        2.167775   -1.362524   -1.168818
     11          1           0        2.682837   -1.928990   -1.742845
     12          8           0        2.028877   -0.212834    1.790669
     13          1           0        2.478731   -0.196815    2.635237
     14          8           0        1.788612    1.747721   -0.698001
     15          1           0        1.921719    2.649978   -0.988168
 ---------------------------------------------------------------------
                    Distance matrix (angstroms):
                    1          2          3          4          5
     1  Zr   0.000000
     2  Si   3.521762   0.000000
     3  O    1.977733   1.628509   0.000000
     4  O    4.002524   1.654268   2.626718   0.000000
     5  O    4.621684   1.661242   2.692334   2.777558   0.000000
     6  O    4.452546   1.654752   2.767936   2.659593   2.634036
     7  H    4.550809   2.257482   2.807787   3.215891   0.963528
     8  H    4.962685   2.245097   3.236347   3.498877   2.691245
     9  H    4.924871   2.250864   3.498751   0.963619   3.137601
    10  O    1.936415   4.723345   3.168132   5.632998   5.579776
    11  H    2.884128   5.547307   4.041243   6.541682   6.326054
    12  O    1.936599   4.544979   3.167682   4.683421   5.279001
    13  H    2.882117   5.320819   4.041935   5.309941   5.937023
    14  O    1.928565   4.278055   3.193808   4.240022   5.754472
    15  H    2.883020   4.845509   3.976644   4.586933   6.408883
                    6          7          8          9         10
     6  O    0.000000
     7  H    3.496677   0.000000
     8  H    0.963795   3.563333   0.000000
     9  H    2.792656   3.708958   3.609981   0.000000
    10  O    5.301131   5.490993   5.523324   6.514548   0.000000
    11  H    5.987341   6.235505   6.108867   7.404454   0.956912
    12  O    5.870015   4.887498   6.403465   5.632135   3.177993
    13  H    6.724455   5.450412   7.270849   6.231656   3.990790
    14  O    4.826142   5.904546   5.527751   4.994708   3.168446
    15  H    5.223728   6.635832   5.983213   5.219997   4.024096
                   11         12         13         14         15
    11  H    0.000000
    12  O    3.982283   0.000000
    13  H    4.712716   0.957038   0.000000
    14  O    3.925499   3.177260   3.920199   0.000000
    15  H    4.702743   3.991130   4.641504   0.957070   0.000000
 Stoichiometry    H6O7SiZr
 Framework group  C1[X(H6O7SiZr)]
 Deg. of freedom    39
 Full point group                 C1      NOp   1
 Largest Abelian subgroup         C1      NOp   1
 Largest concise Abelian subgroup C1      NOp   1
                         Standard orientation:                         
 ---------------------------------------------------------------------
 Center     Atomic      Atomic             Coordinates (Angstroms)
 Number     Number       Type             X           Y           Z
 ---------------------------------------------------------------------
      1         40           0        1.364108   -0.020753   -0.011096
      2         14           0       -2.157513   -0.040659    0.013434
      3          8           0       -0.573301   -0.417793    0.004325
      4          8           0       -2.285245    1.406963    0.803799
      5          8           0       -3.025568   -1.268775    0.719081
      6          8           0       -2.834149    0.164320   -1.482678
      7          1           0       -2.593857   -1.728715    1.447413
      8          1           0       -3.187550   -0.633886   -1.891183
      9          1           0       -3.126793    1.867183    0.711301
     10          8           0        2.237980   -1.336389   -1.131433
     11          1           0        2.790009   -1.878259   -1.694745
     12          8           0        2.016918   -0.148025    1.807711
     13          1           0        2.462338   -0.088853    2.652708
     14          8           0        1.658652    1.750622   -0.714543
     15          1           0        1.734442    2.654519   -1.019844
 ---------------------------------------------------------------------
 Rotational constants (GHZ):           1.6397516           0.4835367           0.4815429
 Basis read from rwf:  (5D, 7F)
 Pseudo-potential data read from rwf file.
 There are   300 symmetry adapted cartesian basis functions of A   symmetry.
 There are   266 symmetry adapted basis functions of A   symmetry.
   266 basis functions,   576 primitive gaussians,   300 cartesian basis functions
    44 alpha electrons       44 beta electrons
       nuclear repulsion energy       634.0546242089 Hartrees.
 NAtoms=   15 NActive=   15 NUniq=   15 SFac= 1.00D+00 NAtFMM=   60 NAOKFM=F Big=F
 Integral buffers will be    131072 words long.
 Raffenetti 2 integral format.
 Two-electron integral symmetry is turned on.
 Nuclear repulsion after empirical dispersion term =      634.0443449137 Hartrees.
 One-electron integrals computed using PRISM.
 PrsmSu:  requested number of processors reduced to:   4 ShMem   1 Linda.
   1 Symmetry operations used in ECPInt.
 ECPInt:  NShTT=    3321 NPrTT=   20810 LenC2=    3182 LenP2D=   15049.
 LDataN:  DoStor=T MaxTD1= 8 Len=  415
 NBasis=   266 RedAO= T EigKep=  1.04D-04  NBF=   266
 NBsUse=   266 1.00D-06 EigRej= -1.00D+00 NBFU=   266
 Defaulting to unpruned grid for atomic number  40.
 Initial guess from the checkpoint file:  "/localscratch/sarashs.35132328.0/Gau-646.chk"
 B after Tr=     0.000000    0.000000   -0.000000
         Rot=    0.999644    0.026666    0.001066   -0.000045 Ang=   3.06 deg.
 ExpMin= 1.01D-02 ExpMax= 1.61D+04 ExpMxC= 2.43D+03 IAcc=3 IRadAn=         5 AccDes= 0.00D+00
 Harris functional with IExCor=  402 and IRadAn=       5 diagonalized for initial guess.
 HarFok:  IExCor=  402 AccDes= 0.00D+00 IRadAn=         5 IDoV= 1 UseB2=F ITyADJ=14
 ICtDFT=  3500011 ScaDFX=  1.000000  1.000000  1.000000  1.000000
 Defaulting to unpruned grid for atomic number  40.
 FoFCou: FMM=F IPFlag=           0 FMFlag=      100000 FMFlg1=           0
         NFxFlg=           0 DoJE=T BraDBF=F KetDBF=T FulRan=T
         wScrn=  0.000000 ICntrl=       500 IOpCl=  0 I1Cent=   200000004 NGrid=           0
         NMat0=    1 NMatS0=      1 NMatT0=    0 NMatD0=    1 NMtDS0=    0 NMtDT0=    0
 Petite list used in FoFCou.
 Requested convergence on RMS density matrix=1.00D-08 within 128 cycles.
 Requested convergence on MAX density matrix=1.00D-06.
 Requested convergence on             energy=1.00D-06.
 No special actions if energy rises.
 Defaulting to unpruned grid for atomic number  40.
 Defaulting to unpruned grid for atomic number  40.
 Defaulting to unpruned grid for atomic number  40.
 Defaulting to unpruned grid for atomic number  40.
 Defaulting to unpruned grid for atomic number  40.
 Defaulting to unpruned grid for atomic number  40.
 Defaulting to unpruned grid for atomic number  40.
 Defaulting to unpruned grid for atomic number  40.
 Defaulting to unpruned grid for atomic number  40.
 Defaulting to unpruned grid for atomic number  40.
 Defaulting to unpruned grid for atomic number  40.
 Defaulting to unpruned grid for atomic number  40.
 Defaulting to unpruned grid for atomic number  40.
 Defaulting to unpruned grid for atomic number  40.
 Defaulting to unpruned grid for atomic number  40.
 Defaulting to unpruned grid for atomic number  40.
 SCF Done:  E(RB3LYP) =  -867.127786198     A.U. after   10 cycles
            NFock= 10  Conv=0.31D-08     -V/T= 2.0439
 PrsmSu:  requested number of processors reduced to:   2 ShMem   1 Linda.
 PrsmSu:  requested number of processors reduced to:  10 ShMem   1 Linda.
   1 Symmetry operations used in ECPInt.
 ECPInt:  NShTT=    3321 NPrTT=   20810 LenC2=    3182 LenP2D=   15049.
 LDataN:  DoStor=T MaxTD1= 9 Len=  602
 Calling FoFJK, ICntrl=      2127 FMM=F ISym2X=0 I1Cent= 0 IOpClX= 0 NMat=1 NMatS=1 NMatT=0.
 CoulSu:  requested number of processors reduced to:  10 ShMem   1 Linda.
 Defaulting to unpruned grid for atomic number  40.
 Defaulting to unpruned grid for atomic number  40.
 Defaulting to unpruned grid for atomic number  40.
 Defaulting to unpruned grid for atomic number  40.
 Defaulting to unpruned grid for atomic number  40.
 Defaulting to unpruned grid for atomic number  40.
 Defaulting to unpruned grid for atomic number  40.
 Defaulting to unpruned grid for atomic number  40.
 Defaulting to unpruned grid for atomic number  40.
 Defaulting to unpruned grid for atomic number  40.
 Defaulting to unpruned grid for atomic number  40.
 Defaulting to unpruned grid for atomic number  40.
 Defaulting to unpruned grid for atomic number  40.
 Defaulting to unpruned grid for atomic number  40.
 Defaulting to unpruned grid for atomic number  40.
 Defaulting to unpruned grid for atomic number  40.
 ***** Axes restored to original set *****
 -------------------------------------------------------------------
 Center     Atomic                   Forces (Hartrees/Bohr)
 Number     Number              X              Y              Z
 -------------------------------------------------------------------
      1       40          -0.000745499   -0.000543910    0.000368645
      2       14           0.000092334   -0.000258109    0.000100664
      3        8           0.000569498    0.000762670   -0.000185327
      4        8           0.000011656   -0.000049076   -0.000047105
      5        8          -0.000082411    0.000011344    0.000062831
      6        8          -0.000014242   -0.000007603    0.000002820
      7        1           0.000025568   -0.000047164   -0.000051787
      8        1          -0.000001214   -0.000006738   -0.000010971
      9        1           0.000005708   -0.000028348   -0.000006466
     10        8           0.000002898   -0.000098940   -0.000042138
     11        1           0.000024347    0.000005179   -0.000001718
     12        8           0.000127121    0.000013463   -0.000095141
     13        1          -0.000041287   -0.000000048    0.000032730
     14        8          -0.000006137    0.000245575   -0.000131184
     15        1           0.000031662    0.000001705    0.000004146
 -------------------------------------------------------------------
 Cartesian Forces:  Max     0.000762670 RMS     0.000218813

 GradGradGradGradGradGradGradGradGradGradGradGradGradGradGradGradGradGrad
 Berny optimization.
 Using GEDIIS/GDIIS optimizer.
 FormGI is forming the generalized inverse of G from B-inverse, IUseBI=4.
 Internal  Forces:  Max     0.000792720 RMS     0.000168478
 Search for a local minimum.
 Step number   3 out of a maximum of   62
 All quantities printed in internal units (Hartrees-Bohrs-Radians)
 Mixed Optimization -- En-DIIS/RFO-DIIS
 Swapping is turned off.
 Update second derivatives using D2CorX and points    1    2    3
 DE= -1.32D-05 DEPred=-8.52D-06 R= 1.55D+00
 TightC=F SS=  1.41D+00  RLast= 1.10D-01 DXNew= 5.0454D-01 3.2958D-01
 Trust test= 1.55D+00 RLast= 1.10D-01 DXMaxT set to 3.30D-01
 ITU=  1  1  0
     Eigenvalues ---    0.00046   0.01534   0.01596   0.01597   0.01598
     Eigenvalues ---    0.01599   0.01686   0.03459   0.03616   0.03636
     Eigenvalues ---    0.03929   0.11747   0.12033   0.12716   0.15404
     Eigenvalues ---    0.15873   0.16000   0.16001   0.16037   0.20074
     Eigenvalues ---    0.21241   0.21380   0.21637   0.23028   0.24427
     Eigenvalues ---    0.24830   0.25005   0.33851   0.41113   0.41965
     Eigenvalues ---    0.43344   0.50055   0.54667   0.54718   0.54740
     Eigenvalues ---    0.56115   0.56130   0.561551000.000001000.00000
     Eigenvalues --- 1000.000001000.000001000.000001000.000001000.00000
     Eigenvalues --- 1000.000001000.000001000.000001000.000001000.00000
     Eigenvalues --- 1000.000001000.00000
 En-DIIS/RFO-DIIS/Sim-DIIS IScMMF=       -3 using points:     3    2    1
 RFO step:  Lambda=-2.24575911D-05.
 DidBck=F Rises=F RFO-DIIS coefs:    1.81722    0.04331   -0.86053
 Iteration  1 RMS(Cart)=  0.08632982 RMS(Int)=  0.00135168
 Iteration  2 RMS(Cart)=  0.00220827 RMS(Int)=  0.00000134
 Iteration  3 RMS(Cart)=  0.00000095 RMS(Int)=  0.00000125
 Iteration  1 RMS(Cart)=  0.00000103 RMS(Int)=  0.00000038
 Iteration  2 RMS(Cart)=  0.00000079 RMS(Int)=  0.00000041
 Variable       Old X    -DE/DX   Delta X   Delta X   Delta X     New X
                                 (Linear)    (Quad)   (Total)
    R1        3.73737  -0.00064   0.00889  -0.00674   0.00215   3.73952
    R2        3.65929   0.00010  -0.00013   0.00020   0.00007   3.65936
    R3        3.65964  -0.00003  -0.00098  -0.00028  -0.00126   3.65838
    R4        3.64446   0.00027  -0.00188   0.00176  -0.00012   3.64434
    R5        3.07744  -0.00016   0.00087  -0.00086   0.00001   3.07745
    R6        3.12611  -0.00009   0.00177  -0.00064   0.00114   3.12725
    R7        3.13929   0.00006  -0.00091   0.00039  -0.00052   3.13877
    R8        3.12703   0.00001   0.00021   0.00001   0.00022   3.12725
    R9        1.82098  -0.00002   0.00001  -0.00005  -0.00004   1.82094
   R10        1.82080  -0.00000   0.00003  -0.00003   0.00000   1.82081
   R11        1.82131   0.00001  -0.00002   0.00003   0.00001   1.82132
   R12        1.80830   0.00001  -0.00004   0.00003  -0.00000   1.80830
   R13        1.80854   0.00001  -0.00003   0.00004   0.00000   1.80854
   R14        1.80860   0.00000   0.00003   0.00003   0.00006   1.80866
    A1        1.88620  -0.00006  -0.00180   0.00018  -0.00163   1.88457
    A2        1.88568   0.00023   0.00152   0.00070   0.00222   1.88789
    A3        1.91437  -0.00007  -0.00158   0.00014  -0.00144   1.91293
    A4        1.92474  -0.00007   0.00073  -0.00051   0.00022   1.92496
    A5        1.92206   0.00000   0.00006  -0.00022  -0.00017   1.92189
    A6        1.92991  -0.00002   0.00102  -0.00026   0.00077   1.93068
    A7        0.23936  -0.00045  -0.00000   0.00000  -0.00000   0.23936
    A8        1.85505  -0.00003  -0.00130   0.00028  -0.00102   1.85403
    A9        1.91717   0.00001   0.00031  -0.00000   0.00030   1.91748
   A10        2.00580   0.00002   0.00116  -0.00013   0.00102   2.00682
   A11        1.98628   0.00003   0.00049  -0.00001   0.00048   1.98676
   A12        1.86711   0.00000  -0.00140   0.00031  -0.00108   1.86603
   A13        1.83585  -0.00004   0.00079  -0.00045   0.00034   1.83619
   A14        2.70575   0.00079   0.00042  -0.00030   0.00011   2.70587
   A15        2.02585  -0.00004   0.00133  -0.00058   0.00075   2.02659
   A16        2.02623  -0.00000  -0.00053   0.00007  -0.00046   2.02578
   A17        2.01591   0.00001  -0.00010   0.00010   0.00000   2.01591
   A18        3.26633   0.00004   0.00273   0.00166   0.00440   3.27072
   A19        3.31862  -0.00009  -0.00382  -0.00456  -0.00837   3.31024
   A20        3.05471   0.00005  -0.00572   0.00475  -0.00097   3.05374
   A21        3.00833  -0.00002   0.00050  -0.00126  -0.00076   3.00757
   A22        3.21816   0.00002  -0.00041   0.00157   0.00116   3.21932
   A23        3.11517  -0.00003  -0.01114   0.00086  -0.01028   3.10489
    D1       -2.48701  -0.00002  -0.08867  -0.00006  -0.08873  -2.57574
    D2        1.71362  -0.00003  -0.08938   0.00006  -0.08932   1.62430
    D3       -0.39130  -0.00010  -0.09061  -0.00014  -0.09075  -0.48205
    D4       -0.52558  -0.00001  -0.00294   0.00028  -0.00266  -0.52824
    D5       -2.68176  -0.00003  -0.00290   0.00012  -0.00278  -2.68453
    D6        1.53587  -0.00001  -0.00489   0.00078  -0.00411   1.53176
    D7        2.89625   0.00000   0.00039   0.00000   0.00040   2.89665
    D8       -1.27458   0.00002   0.00018   0.00019   0.00036  -1.27421
    D9        0.74521  -0.00001   0.00052  -0.00016   0.00035   0.74556
   D10        0.61180  -0.00005  -0.00402  -0.00020  -0.00423   0.60757
   D11       -1.46548  -0.00004  -0.00290  -0.00055  -0.00346  -1.46894
   D12        2.77964  -0.00004  -0.00196  -0.00064  -0.00261   2.77703
   D13        1.54770   0.00000   0.00079  -0.00029   0.00050   1.54819
   D14       -2.68083  -0.00001  -0.00111   0.00019  -0.00092  -2.68175
   D15       -0.56298   0.00000  -0.00084   0.00011  -0.00073  -0.56372
         Item               Value     Threshold  Converged?
 Maximum Force            0.000598     0.000450     NO 
 RMS     Force            0.000110     0.000300     YES
 Maximum Displacement     0.221790     0.001800     NO 
 RMS     Displacement     0.086597     0.001200     NO 
 Predicted change in Energy=-8.953089D-06
 GradGradGradGradGradGradGradGradGradGradGradGradGradGradGradGradGradGrad

                          Input orientation:                          
 ---------------------------------------------------------------------
 Center     Atomic      Atomic             Coordinates (Angstroms)
 Number     Number       Type             X           Y           Z
 ---------------------------------------------------------------------
      1         40           0        1.382992   -0.011565   -0.034875
      2         14           0       -2.133659    0.191932    0.017716
      3          8           0       -0.577022   -0.284065   -0.030940
      4          8           0       -2.163887    1.583894    0.912211
      5          8           0       -3.077012   -1.025768    0.639085
      6          8           0       -2.801212    0.550410   -1.453491
      7          1           0       -2.672134   -1.566298    1.326317
      8          1           0       -3.207090   -0.190922   -1.916742
      9          1           0       -2.973787    2.103474    0.861011
     10          8           0        2.177417   -1.401084   -1.124814
     11          1           0        2.701441   -1.989125   -1.668214
     12          8           0        2.014816   -0.146177    1.790094
     13          1           0        2.447762   -0.097488    2.642216
     14          8           0        1.793495    1.723661   -0.769446
     15          1           0        1.932740    2.618129   -1.080216
 ---------------------------------------------------------------------
                    Distance matrix (angstroms):
                    1          2          3          4          5
     1  Zr   0.000000
     2  Si   3.522926   0.000000
     3  O    1.978870   1.628514   0.000000
     4  O    4.002850   1.654870   2.626203   0.000000
     5  O    4.623252   1.660965   2.692398   2.778260   0.000000
     6  O    4.453745   1.654867   2.768938   2.659101   2.634251
     7  H    4.551272   2.256937   2.806379   3.217687   0.963529
     8  H    4.964115   2.245208   3.237619   3.498746   2.691865
     9  H    4.925193   2.251878   3.498628   0.963599   3.138799
    10  O    1.936450   4.735868   3.167211   5.648582   5.555288
    11  H    2.883894   5.565749   4.041808   6.564790   6.296205
    12  O    1.935932   4.523880   3.170616   4.607101   5.293885
    13  H    2.882349   5.287833   4.041027   5.204543   5.949569
    14  O    1.928501   4.288164   3.193071   4.302135   5.767595
    15  H    2.882750   4.860812   3.977765   4.671376   6.428965
                    6          7          8          9         10
     6  O    0.000000
     7  H    3.496348   0.000000
     8  H    0.963801   3.563042   0.000000
     9  H    2.792617   3.711433   3.610346   0.000000
    10  O    5.357527   5.436311   5.575352   6.539138   0.000000
    11  H    6.064201   6.166141   6.181103   7.440064   0.956910
    12  O    5.848094   4.919282   6.403978   5.550701   3.177722
    13  H    6.689269   5.486559   7.264309   6.116381   3.995368
[...]
 ! A17   A(2,6,8)              115.5002         -DE/DX =    0.0                 !
 ! A18   L(1,10,11,8,-1)       189.563          -DE/DX =    0.0                 !
 ! A19   L(1,12,13,7,-1)       187.332          -DE/DX =    0.0                 !
 ! A20   L(1,14,15,4,-1)       176.9034         -DE/DX =    0.0                 !
 ! A21   L(1,10,11,8,-2)       173.7704         -DE/DX =    0.0                 !
 ! A22   L(1,12,13,7,-2)       188.2455         -DE/DX =    0.0                 !
 ! A23   L(1,14,15,4,-2)       179.4067         -DE/DX =    0.0                 !
 ! D1    D(10,1,3,2)          -154.1417         -DE/DX =    0.0                 !
 ! D2    D(12,1,3,2)            86.6932         -DE/DX =    0.0                 !
 ! D3    D(14,1,3,2)           -34.0446         -DE/DX =    0.0                 !
 ! D4    D(4,2,3,1)            -26.3155         -DE/DX =    0.0                 !
 ! D5    D(5,2,3,1)           -149.8638         -DE/DX =    0.0                 !
 ! D6    D(6,2,3,1)             91.7361         -DE/DX =    0.0                 !
 ! D7    D(3,2,4,9)            165.2363         -DE/DX =    0.0                 !
 ! D8    D(5,2,4,9)            -73.7851         -DE/DX =    0.0                 !
 ! D9    D(6,2,4,9)             41.9607         -DE/DX =    0.0                 !
 ! D10   D(3,2,5,7)             33.5481         -DE/DX =    0.0                 !
 ! D11   D(4,2,5,7)            -85.4392         -DE/DX =    0.0                 !
 ! D12   D(6,2,5,7)            157.8295         -DE/DX =    0.0                 !
 ! D13   D(3,2,6,8)             88.6838         -DE/DX =    0.0                 !
 ! D14   D(4,2,6,8)           -153.625          -DE/DX =    0.0                 !
 ! D15   D(5,2,6,8)            -32.251          -DE/DX =    0.0                 !
 --------------------------------------------------------------------------------
 GradGradGradGradGradGradGradGradGradGradGradGradGradGradGradGradGradGrad

                          Input orientation:                          
 ---------------------------------------------------------------------
 Center     Atomic      Atomic             Coordinates (Angstroms)
 Number     Number       Type             X           Y           Z
 ---------------------------------------------------------------------
      1         40           0        1.380493   -0.009829   -0.051753
      2         14           0       -2.132990    0.193486    0.019412
      3          8           0       -0.577246   -0.278021   -0.075842
      4          8           0       -2.148138    1.553674    0.960590
      5          8           0       -3.061446   -1.047584    0.617595
      6          8           0       -2.829904    0.600103   -1.425225
      7          1           0       -2.635862   -1.621743    1.263750
      8          1           0       -3.243872   -0.125988   -1.905151
      9          1           0       -2.955957    2.078294    0.933673
     10          8           0        2.183416   -1.418743   -1.111446
     11          1           0        2.734564   -2.024701   -1.606269
     12          8           0        1.992520   -0.125241    1.780948
     13          1           0        2.363987   -0.025608    2.657320
     14          8           0        1.804187    1.717591   -0.799852
     15          1           0        1.971107    2.593320   -1.147840
 ---------------------------------------------------------------------
                    Distance matrix (angstroms):
                    1          2          3          4          5
     1  Zr   0.000000
     2  Si   3.520080   0.000000
     3  O    1.976170   1.628414   0.000000
     4  O    3.990064   1.654133   2.626214   0.000000
     5  O    4.610400   1.661357   2.691530   2.778187   0.000000
     6  O    4.470557   1.654691   2.768827   2.658236   2.634690
     7  H    4.523265   2.257501   2.799642   3.226927   0.963482
     8  H    4.983305   2.245009   3.237342   3.497767   2.692000
     9  H    4.912853   2.250700   3.497086   0.963599   3.143588
    10  O    1.937182   4.744416   3.161483   5.647208   5.534972
    11  H    2.882662   5.590731   4.044896   6.575281   6.284430
    12  O    1.935637   4.497157   3.174068   4.542773   5.267512
    13  H    2.882116   5.218176   4.023026   5.072701   5.885596
    14  O    1.929546   4.300634   3.190279   4.329769   5.773191
    15  H    2.885587   4.895436   3.985960   4.742838   6.457517
                    6          7          8          9         10
     6  O    0.000000
     7  H    3.493542   0.000000
     8  H    0.963798   3.556528   0.000000
     9  H    2.786636   3.728497   3.605645   0.000000
    10  O    5.413646   5.376635   5.635302   6.544077   0.000000
    11  H    6.155134   6.102529   6.279820   7.461093   0.956974
    12  O    5.836218   4.891721   6.403681   5.482779   3.174198
    13  H    6.635902   5.430302   7.230097   5.974879   4.022068
    14  O    4.807772   5.926520   5.486653   5.078798   3.174508
    15  H    5.205724   6.693780   5.929937   5.373445   4.017841
                   11         12         13         14         15
    11  H    0.000000
    12  O    3.953710   0.000000
    13  H    4.723547   0.957049   0.000000
    14  O    3.939627   3.176795   3.912053   0.000000
    15  H    4.703099   3.996102   4.635988   0.957005   0.000000
 Stoichiometry    H6O7SiZr
 Framework group  C1[X(H6O7SiZr)]
 Deg. of freedom    39
 Full point group                 C1      NOp   1
 Largest Abelian subgroup         C1      NOp   1
 Largest concise Abelian subgroup C1      NOp   1
                         Standard orientation:                         
 ---------------------------------------------------------------------
 Center     Atomic      Atomic             Coordinates (Angstroms)
 Number     Number       Type             X           Y           Z
 ---------------------------------------------------------------------
      1         40           0        1.363327   -0.019873   -0.013746
      2         14           0       -2.156614   -0.041142    0.009244
      3          8           0       -0.572614   -0.415792   -0.038855
      4          8           0       -2.272350    1.374783    0.856545
      5          8           0       -3.011801   -1.297396    0.680503
      6          8           0       -2.857757    0.222283   -1.466225
      7          1           0       -2.559380   -1.798405    1.367964
      8          1           0       -3.217433   -0.559506   -1.900214
      9          1           0       -3.111731    1.842815    0.786487
     10          8           0        2.269933   -1.440980   -0.968311
     11          1           0        2.865781   -2.041399   -1.415819
     12          8           0        1.955593    0.026944    1.828459
     13          1           0        2.307499    0.208605    2.699726
     14          8           0        1.685726    1.677829   -0.872240
     15          1           0        1.800956    2.537460   -1.276734
 ---------------------------------------------------------------------
 Rotational constants (GHZ):           1.6400798           0.4841451           0.4816399

 **********************************************************************

            Population analysis using the SCF Density.

 **********************************************************************

 Orbital symmetries:
       Occupied  (A) (A) (A) (A) (A) (A) (A) (A) (A) (A) (A) (A)
                 (A) (A) (A) (A) (A) (A) (A) (A) (A) (A) (A) (A)
                 (A) (A) (A) (A) (A) (A) (A) (A) (A) (A) (A) (A)
                 (A) (A) (A) (A) (A) (A) (A) (A)
       Virtual   (A) (A) (A) (A) (A) (A) (A) (A) (A) (A) (A) (A)
                 (A) (A) (A) (A) (A) (A) (A) (A) (A) (A) (A) (A)
                 (A) (A) (A) (A) (A) (A) (A) (A) (A) (A) (A) (A)
                 (A) (A) (A) (A) (A) (A) (A) (A) (A) (A) (A) (A)
                 (A) (A) (A) (A) (A) (A) (A) (A) (A) (A) (A) (A)
                 (A) (A) (A) (A) (A) (A) (A) (A) (A) (A) (A) (A)
                 (A) (A) (A) (A) (A) (A) (A) (A) (A) (A) (A) (A)
                 (A) (A) (A) (A) (A) (A) (A) (A) (A) (A) (A) (A)
                 (A) (A) (A) (A) (A) (A) (A) (A) (A) (A) (A) (A)
                 (A) (A) (A) (A) (A) (A) (A) (A) (A) (A) (A) (A)
                 (A) (A) (A) (A) (A) (A) (A) (A) (A) (A) (A) (A)
                 (A) (A) (A) (A) (A) (A) (A) (A) (A) (A) (A) (A)
                 (A) (A) (A) (A) (A) (A) (A) (A) (A) (A) (A) (A)
                 (A) (A) (A) (A) (A) (A) (A) (A) (A) (A) (A) (A)
                 (A) (A) (A) (A) (A) (A) (A) (A) (A) (A) (A) (A)
                 (A) (A) (A) (A) (A) (A) (A) (A) (A) (A) (A) (A)
                 (A) (A) (A) (A) (A) (A) (A) (A) (A) (A) (A) (A)
                 (A) (A) (A) (A) (A) (A) (A) (A) (A) (A) (A) (A)
                 (A) (A) (A) (A) (A) (A)
 The electronic state is 1-A.
 Alpha  occ. eigenvalues --  -66.19942 -19.15207 -19.15177 -19.14983 -19.14385
 Alpha  occ. eigenvalues --  -19.14262 -19.14148 -19.13198  -5.34045  -3.70009
 Alpha  occ. eigenvalues --   -3.70002  -3.69967  -2.11180  -1.27501  -1.27385
 Alpha  occ. eigenvalues --   -1.27056  -1.02813  -0.99644  -0.99441  -0.96597
 Alpha  occ. eigenvalues --   -0.95400  -0.95309  -0.94106  -0.57472  -0.52281
 Alpha  occ. eigenvalues --   -0.51626  -0.50341  -0.49614  -0.49595  -0.45553
 Alpha  occ. eigenvalues --   -0.39568  -0.37748  -0.37288  -0.36014  -0.35608
 Alpha  occ. eigenvalues --   -0.34713  -0.34231  -0.33949  -0.32920  -0.32688
 Alpha  occ. eigenvalues --   -0.32072  -0.31266  -0.31187  -0.30715
 Alpha virt. eigenvalues --   -0.02897  -0.01280  -0.00646  -0.00528   0.00310
 Alpha virt. eigenvalues --    0.00423   0.00932   0.01168   0.01799   0.02479
 Alpha virt. eigenvalues --    0.02512   0.02960   0.03134   0.03297   0.03387
 Alpha virt. eigenvalues --    0.04257   0.04570   0.04616   0.05450   0.05718
 Alpha virt. eigenvalues --    0.06779   0.09119   0.09665   0.09787   0.10034
 Alpha virt. eigenvalues --    0.10266   0.11441   0.12407   0.13193   0.13906
 Alpha virt. eigenvalues --    0.14546   0.15744   0.16213   0.16365   0.17856
 Alpha virt. eigenvalues --    0.18139   0.18322   0.19078   0.19481   0.19750
 Alpha virt. eigenvalues --    0.20065   0.20493   0.21312   0.22066   0.22272
 Alpha virt. eigenvalues --    0.24087   0.24853   0.25233   0.26096   0.26465
 Alpha virt. eigenvalues --    0.27172   0.27268   0.28125   0.28161   0.28624
 Alpha virt. eigenvalues --    0.29142   0.29499   0.29619   0.29902   0.31003
 Alpha virt. eigenvalues --    0.31384   0.32924   0.33362   0.34890   0.35469
 Alpha virt. eigenvalues --    0.35740   0.35889   0.37608   0.39156   0.39769
 Alpha virt. eigenvalues --    0.41470   0.43867   0.44514   0.46426   0.47467
 Alpha virt. eigenvalues --    0.48374   0.48962   0.49823   0.52737   0.53693
 Alpha virt. eigenvalues --    0.55065   0.56949   0.57790   0.60224   0.60814
 Alpha virt. eigenvalues --    0.61545   0.62079   0.62224   0.64881   0.65761
 Alpha virt. eigenvalues --    0.67454   0.67913   0.70036   0.72712   0.73125
 Alpha virt. eigenvalues --    0.74601   0.76055   0.77632   0.78742   0.81709
 Alpha virt. eigenvalues --    0.84846   0.86324   0.96171   0.97756   0.98503
 Alpha virt. eigenvalues --    1.01848   1.02562   1.04266   1.06243   1.07017
 Alpha virt. eigenvalues --    1.07750   1.18730   1.19681   1.20870   1.21163
 Alpha virt. eigenvalues --    1.21414   1.22773   1.23476   1.23835   1.25083
 Alpha virt. eigenvalues --    1.25834   1.27003   1.27942   1.28659   1.29076
 Alpha virt. eigenvalues --    1.29368   1.30846   1.30987   1.31978   1.32928
 Alpha virt. eigenvalues --    1.34037   1.36900   1.42370   1.43090   1.45966
 Alpha virt. eigenvalues --    1.48268   1.51738   1.56824   1.59541   1.61033
 Alpha virt. eigenvalues --    1.61870   1.63256   1.63506   1.65125   1.67667
 Alpha virt. eigenvalues --    1.70694   1.70787   1.72477   1.72801   1.73322
 Alpha virt. eigenvalues --    1.73830   1.74344   1.75571   1.76810   1.77542
 Alpha virt. eigenvalues --    1.79304   1.80190   1.82971   1.83547   1.84713
 Alpha virt. eigenvalues --    1.86453   1.86893   1.91037   1.91474   1.92103
 Alpha virt. eigenvalues --    1.92819   1.94096   1.94873   1.96553   1.97484
 Alpha virt. eigenvalues --    1.98221   2.00175   2.01072   2.02639   2.07597
 Alpha virt. eigenvalues --    2.08905   2.09205   2.09744   2.13042   2.18328
 Alpha virt. eigenvalues --    2.19279   2.20791   2.23064   2.25942   2.32154
 Alpha virt. eigenvalues --    2.39039   2.41979   2.42663   2.43253   2.45283
 Alpha virt. eigenvalues --    2.50466   2.58029   2.60482   2.62438   2.63407
 Alpha virt. eigenvalues --    2.65053   2.67745   2.68581   2.68807   2.72990
 Alpha virt. eigenvalues --    2.79439   2.80440   2.81904   2.83768   2.87387
 Alpha virt. eigenvalues --    2.90153   2.91481   2.92454   2.92938   2.94239
 Alpha virt. eigenvalues --    2.98924   3.14119   3.46763   3.48530   3.51110
 Alpha virt. eigenvalues --    3.56384   3.59955   3.76359   4.13647   4.14620
 Alpha virt. eigenvalues --    4.19115  30.90501
          Condensed to atoms (all electrons):
               1          2          3          4          5          6
     1  Zr  10.469578   0.142718  -0.028093   0.007293  -0.086108  -0.038189
     2  Si   0.142718  12.969896  -0.713993  -0.086873  -0.162533   0.009520
     3  O   -0.028093  -0.713993   8.941268   0.104644   0.299203   0.097505
     4  O    0.007293  -0.086873   0.104644   8.578124  -0.027236   0.036029
     5  O   -0.086108  -0.162533   0.299203  -0.027236   8.554415   0.015051
     6  O   -0.038189   0.009520   0.097505   0.036029   0.015051   8.525857
     7  H   -0.004230   0.028662  -0.000615  -0.006297   0.240857   0.006512
     8  H    0.001897   0.058810  -0.021610   0.006224  -0.004947   0.234039
     9  H   -0.005156   0.035625   0.010551   0.224953  -0.005291  -0.004880
    10  O    0.024675  -0.008917  -0.022936   0.000473   0.001318   0.000476
    11  H   -0.087088   0.000458  -0.001151   0.000001   0.000003   0.000000
    12  O    0.031741  -0.013354  -0.027011   0.000720   0.001346   0.000279
    13  H   -0.087095   0.000785  -0.000650   0.000019   0.000002   0.000001
    14  O    0.017867  -0.009698  -0.027472   0.001638   0.001019  -0.000852
    15  H   -0.090193   0.000989  -0.000415   0.000065   0.000003   0.000028
               7          8          9         10         11         12
     1  Zr  -0.004230   0.001897  -0.005156   0.024675  -0.087088   0.031741
     2  Si   0.028662   0.058810   0.035625  -0.008917   0.000458  -0.013354
     3  O   -0.000615  -0.021610   0.010551  -0.022936  -0.001151  -0.027011
     4  O   -0.006297   0.006224   0.224953   0.000473   0.000001   0.000720
     5  O    0.240857  -0.004947  -0.005291   0.001318   0.000003   0.001346
     6  O    0.006512   0.234039  -0.004880   0.000476   0.000000   0.000279
     7  H    0.370225   0.000056   0.000084   0.000008  -0.000000  -0.000026
     8  H    0.000056   0.358541   0.000060  -0.000018  -0.000000  -0.000006
     9  H    0.000084   0.000060   0.365691  -0.000002  -0.000000  -0.000024
    10  O    0.000008  -0.000018  -0.000002   8.611235   0.327904  -0.031503
    11  H   -0.000000  -0.000000  -0.000000   0.327904   0.382030  -0.000947
    12  O   -0.000026  -0.000006  -0.000024  -0.031503  -0.000947   8.602265
    13  H   -0.000000  -0.000000  -0.000000  -0.000524  -0.000007   0.327566
    14  O   -0.000000   0.000033  -0.000029  -0.036160  -0.001290  -0.036888
    15  H   -0.000000  -0.000000  -0.000000  -0.000733  -0.000008  -0.001007
              13         14         15
     1  Zr  -0.087095   0.017867  -0.090193
     2  Si   0.000785  -0.009698   0.000989
     3  O   -0.000650  -0.027472  -0.000415
     4  O    0.000019   0.001638   0.000065
     5  O    0.000002   0.001019   0.000003
     6  O    0.000001  -0.000852   0.000028
     7  H   -0.000000  -0.000000  -0.000000
     8  H   -0.000000   0.000033  -0.000000
     9  H   -0.000000  -0.000029  -0.000000
    10  O   -0.000524  -0.036160  -0.000733
    11  H   -0.000007  -0.001290  -0.000008
    12  O    0.327566  -0.036888  -0.001007
    13  H    0.381484  -0.001628  -0.000012
    14  O   -0.001628   8.615832   0.331101
    15  H   -0.000012   0.331101   0.379325
 Mulliken charges:
               1
     1  Zr   1.730384
     2  Si   1.747904
     3  O   -0.609225
     4  O   -0.839778
     5  O   -0.827100
     6  O   -0.881377
     7  H    0.364763
     8  H    0.366921
     9  H    0.378417
    10  O   -0.865296
    11  H    0.380094
    12  O   -0.853151
    13  H    0.380059
    14  O   -0.853473
    15  H    0.380857
 Sum of Mulliken charges =  -0.00000
 Mulliken charges with hydrogens summed into heavy atoms:
               1
     1  Zr   1.730384
     2  Si   1.747904
     3  O   -0.609225
     4  O   -0.461360
     5  O   -0.462338
     6  O   -0.514456
    10  O   -0.485201
    12  O   -0.473091
    14  O   -0.472616
 Electronic spatial extent (au):  <R**2>=           2218.1173
 Charge=             -0.0000 electrons
 Dipole moment (field-independent basis, Debye):
    X=              1.7001    Y=             -0.3685    Z=              0.2748  Tot=              1.7612
 Quadrupole moment (field-independent basis, Debye-Ang):
   XX=            -69.2645   YY=            -67.7244   ZZ=            -68.1128
   XY=             -0.3879   XZ=             -0.0674   YZ=              0.6147
 Traceless Quadrupole moment (field-independent basis, Debye-Ang):
   XX=             -0.8972   YY=              0.6428   ZZ=              0.2544
   XY=             -0.3879   XZ=             -0.0674   YZ=              0.6147
 Octapole moment (field-independent basis, Debye-Ang**2):
  XXX=             53.4854  YYY=              9.6592  ZZZ=             13.5925  XYY=             20.0297
  XXY=              5.7909  XXZ=             -4.8303  XZZ=             24.2339  YZZ=             -9.8539
  YYZ=             -9.0702  XYZ=             -2.2016
 Hexadecapole moment (field-independent basis, Debye-Ang**3):
 XXXX=          -1881.9654 YYYY=           -350.8968 ZZZZ=           -346.5566 XXXY=           -103.1652
 XXXZ=             10.6887 YYYX=             -7.8080 YYYZ=            -25.2082 ZZZX=             48.6054
 ZZZY=             10.8041 XXYY=           -323.8478 XXZZ=           -320.5222 YYZZ=           -111.3197
 XXYZ=             62.5715 YYXZ=            -50.1861 ZZXY=             34.9981
 N-N= 6.341421184620D+02 E-N=-3.305841900899D+03  KE= 8.306842378695D+02
 1\1\GINC-GRA1053\FOpt\RB3LYP\Gen\H6O7Si1Zr1\SARASHS\15-Jul-2020\0\\#n 
 B3LYP/Gen Pseudo=cards EmpiricalDispersion=GD3 Opt=modredundant\\Title
 \\0,1\Zr,1.3804928967,-0.0098288438,-0.0517533244\Si,-2.1329898635,0.1
 934860664,0.0194124683\O,-0.5772458473,-0.2780209181,-0.0758418927\O,-
 2.1481375621,1.5536743323,0.960590129\O,-3.0614461349,-1.047583575,0.6
 17594621\O,-2.8299035854,0.6001027364,-1.4252246921\H,-2.6358622986,-1
 .6217431557,1.2637495256\H,-3.2438715944,-0.1259876643,-1.905151339\H,
 -2.9559572857,2.0782944819,0.9336730239\O,2.1834157785,-1.4187434989,-
 1.1114460099\H,2.7345640752,-2.0247013246,-1.6062691597\O,1.9925197554
 ,-0.1252411516,1.7809481467\H,2.3639874661,-0.0256082771,2.6573203958\
 O,1.804187118,1.7175911699,-0.7998519999\H,1.9711070819,2.593319622,-1
 .1478398925\\Version=ES64L-G16RevB.01\State=1-A\HF=-867.1278096\RMSD=5
 .790e-09\RMSF=7.834e-05\Dipole=0.6590703,-0.1945952,0.0887883\Quadrupo
 le=-0.6999565,0.4470689,0.2528876,-0.2059356,-0.0255234,0.4787362\PG=C
 01 [X(H6O7Si1Zr1)]\\@


 We're simply so accustomed to the marvels of everyday thought
 that we never wonder about it.
 -- Marvin Minsky in "Why people think computers are smart"
 Job cpu time:       0 days  4 hours 38 minutes 51.5 seconds.
 Elapsed time:       0 days  0 hours 20 minutes  7.2 seconds.
 File lengths (MBytes):  RWF=     48 Int=      0 D2E=      0 Chk=      6 Scr=      1
 Normal termination of Gaussian 16 at Wed Jul 15 14:54:29 2020.
