 Entering Gaussian System, Link 0=g16
 Initial command:
 /opt/software/gaussian/g16.b01/l1.exe "/localscratch/sarashs.35132331.0/Gau-9544.inp" -scrdir="/localscratch/sarashs.35132331.0/"
 Entering Link 1 = /opt/software/gaussian/g16.b01/l1.exe PID=      9547.
  
 Copyright (c) 1988-2017, Gaussian, Inc.  All Rights Reserved.
  
 This is part of the Gaussian(R) 16 program.  It is based on
 the Gaussian(R) 09 system (copyright 2009, Gaussian, Inc.),
 the Gaussian(R) 03 system (copyright 2003, Gaussian, Inc.),
 the Gaussian(R) 98 system (copyright 1998, Gaussian, Inc.),
 the Gaussian(R) 94 system (copyright 1995, Gaussian, Inc.),
 the Gaussian 92(TM) system (copyright 1992, Gaussian, Inc.),
 the Gaussian 90(TM) system (copyright 1990, Gaussian, Inc.),
 the Gaussian 88(TM) system (copyright 1988, Gaussian, Inc.),
 the Gaussian 86(TM) system (copyright 1986, Carnegie Mellon
 University), and the Gaussian 82(TM) system (copyright 1983,
 Carnegie Mellon University). Gaussian is a federally registered
 trademark of Gaussian, Inc.
  
 This software contains proprietary and confidential information,
 including trade secrets, belonging to Gaussian, Inc.
  
 This software is provided under written license and may be
 used, copied, transmitted, or stored only in accord with that
 written license.
  
 The following legend is applicable only to US Government
 contracts under FAR:
  
                    RESTRICTED RIGHTS LEGEND
  
 Use, reproduction and disclosure by the US Government is
 subject to restrictions as set forth in subparagraphs (a)
 and (c) of the Commercial Computer Software - Restricted
 Rights clause in FAR 52.227-19.
  
 Gaussian, Inc.
 340 Quinnipiac St., Bldg. 40, Wallingford CT 06492
  
  
 ---------------------------------------------------------------
 Warning -- This program may not be used in any manner that
 competes with the business of Gaussian, Inc. or will provide
 assistance to any competitor of Gaussian, Inc.  The licensee
 of this program is prohibited from giving any competitor of
 Gaussian, Inc. access to this program.  By using this program,
 the user acknowledges that Gaussian, Inc. is engaged in the
 business of creating and licensing software in the field of
 computational chemistry and represents and warrants to the
 licensee that it is not a competitor of Gaussian, Inc. and that
 it will not use this program in any manner prohibited above.
 ---------------------------------------------------------------
  

 Cite this work as:
 Gaussian 16, Revision B.01,
 M. J. Frisch, G. W. Trucks, H. B. Schlegel, G. E. Scuseria, 
 M. A. Robb, J. R. Cheeseman, G. Scalmani, V. Barone, 
 G. A. Petersson, H. Nakatsuji, X. Li, M. Caricato, A. V. Marenich, 
 J. Bloino, B. G. Janesko, R. Gomperts, B. Mennucci, H. P. Hratchian, 
 J. V. Ortiz, A. F. Izmaylov, J. L. Sonnenberg, D. Williams-Young, 
 F. Ding, F. Lipparini, F. Egidi, J. Goings, B. Peng, A. Petrone, 
 T. Henderson, D. Ranasinghe, V. G. Zakrzewski, J. Gao, N. Rega, 
 G. Zheng, W. Liang, M. Hada, M. Ehara, K. Toyota, R. Fukuda, 
 J. Hasegawa, M. Ishida, T. Nakajima, Y. Honda, O. Kitao, H. Nakai, 
 T. Vreven, K. Throssell, J. A. Montgomery, Jr., J. E. Peralta, 
 F. Ogliaro, M. J. Bearpark, J. J. Heyd, E. N. Brothers, K. N. Kudin, 
 V. N. Staroverov, T. A. Keith, R. Kobayashi, J. Normand, 
 K. Raghavachari, A. P. Rendell, J. C. Burant, S. S. Iyengar, 
 J. Tomasi, M. Cossi, J. M. Millam, M. Klene, C. Adamo, R. Cammi, 
 J. W. Ochterski, R. L. Martin, K. Morokuma, O. Farkas, 
 J. B. Foresman, and D. J. Fox, Gaussian, Inc., Wallingford CT, 2016.
 
 ******************************************
 Gaussian 16:  ES64L-G16RevB.01 20-Dec-2017
                15-Jul-2020 
 ******************************************
 %NProcShared=16
 Will use up to   16 processors via shared memory.
 ------------------------------------------------------------------
 #n B3LYP/Gen Pseudo=cards EmpiricalDispersion=GD3 Opt=modredundant
 ------------------------------------------------------------------
 1/18=120,19=15,26=3,38=1/1,3;
 2/9=110,12=2,17=6,18=5,40=1/2;
 3/5=7,11=2,16=1,17=8,25=1,30=1,71=1,74=-5,124=31/1,2,3;
 4//1;
 5/5=2,38=5/2;
 6/7=2,8=2,9=2,10=2,28=1/1;
 7//1,2,3,16;
 1/18=20,19=15,26=3/3(2);
 2/9=110/2;
 99//99;
 2/9=110/2;
 3/5=7,6=1,11=2,16=1,17=8,25=1,30=1,71=1,74=-5,82=7,124=31/1,2,3;
 4/5=5,16=3,69=1/1;
 5/5=2,38=5/2;
 7//1,2,3,16;
 1/18=20,19=15,26=3/3(-5);
 2/9=110/2;
 6/7=2,8=2,9=2,10=2,19=2,28=1/1;
 99/9=1/99;
 -----
 Title
 -----
 Symbolic Z-matrix:
 Charge =  0 Multiplicity = 1
 Zr                    1.37839  -0.01367  -0.01029 
 Si                   -2.19652  -0.13992   0.02007 
 O                    -0.57498  -0.28442   0.01654 
 O                    -2.53372   1.30916   0.74076 
 O                    -2.87704  -1.44566   0.79049 
 O                    -2.89515  -0.11087  -1.47954 
 H                    -2.38499  -1.80053   1.53903 
 H                    -3.12868  -0.9714   -1.8454 
 H                    -3.43364   1.63581   0.63122 
 O                     2.15239  -1.31312  -1.2196 
 H                     2.65751  -1.85105  -1.82887 
 O                     2.04402  -0.29207   1.78758 
 H                     2.51011  -0.3161    2.62313 
 O                     1.78195   1.7752   -0.6111 
 H                     1.91399   2.68442  -0.87911 
 
 The following ModRedundant input section has been read:
 A       1       2       3 F                                                   
 

 GradGradGradGradGradGradGradGradGradGradGradGradGradGradGradGradGradGrad
 Berny optimization.
 Initialization pass.
                           ----------------------------
                           !    Initial Parameters    !
                           ! (Angstroms and Degrees)  !
 --------------------------                            --------------------------
 ! Name  Definition              Value          Derivative Info.                !
 --------------------------------------------------------------------------------
 ! R1    R(1,3)                  1.9722         estimate D2E/DX2                !
 ! R2    R(1,10)                 1.9365         estimate D2E/DX2                !
 ! R3    R(1,12)                 1.9372         estimate D2E/DX2                !
 ! R4    R(1,14)                 1.9297         estimate D2E/DX2                !
 ! R5    R(2,3)                  1.628          estimate D2E/DX2                !
 ! R6    R(2,4)                  1.6532         estimate D2E/DX2                !
 ! R7    R(2,5)                  1.6618         estimate D2E/DX2                !
 ! R8    R(2,6)                  1.6546         estimate D2E/DX2                !
 ! R9    R(4,9)                  0.9636         estimate D2E/DX2                !
 ! R10   R(5,7)                  0.9635         estimate D2E/DX2                !
 ! R11   R(6,8)                  0.9638         estimate D2E/DX2                !
 ! R12   R(10,11)                0.9569         estimate D2E/DX2                !
 ! R13   R(12,13)                0.9571         estimate D2E/DX2                !
 ! R14   R(14,15)                0.9571         estimate D2E/DX2                !
 ! A1    A(3,1,10)             108.1944         estimate D2E/DX2                !
 ! A2    A(3,1,12)             107.9362         estimate D2E/DX2                !
 ! A3    A(3,1,14)             109.793          estimate D2E/DX2                !
 ! A4    A(10,1,12)            110.2299         estimate D2E/DX2                !
 ! A5    A(10,1,14)            110.1226         estimate D2E/DX2                !
 ! A6    A(12,1,14)            110.5061         estimate D2E/DX2                !
 ! A7    A(1,2,3)                7.124          Frozen                          !
 ! A8    A(3,2,4)              106.3746         estimate D2E/DX2                !
 ! A9    A(3,2,5)              109.8252         estimate D2E/DX2                !
 ! A10   A(3,2,6)              114.8444         estimate D2E/DX2                !
 ! A11   A(4,2,5)              113.7723         estimate D2E/DX2                !
 ! A12   A(4,2,6)              107.0732         estimate D2E/DX2                !
 ! A13   A(5,2,6)              105.133          estimate D2E/DX2                !
 ! A14   A(2,4,9)              115.9809         estimate D2E/DX2                !
 ! A15   A(2,5,7)              116.1314         estimate D2E/DX2                !
 ! A16   A(2,6,8)              115.5103         estimate D2E/DX2                !
 ! A17   L(1,3,2,7,-1)         189.5061         estimate D2E/DX2                !
 ! A18   L(1,10,11,8,-1)       187.516          estimate D2E/DX2                !
 ! A19   L(1,12,13,7,-1)       190.7733         estimate D2E/DX2                !
 ! A20   L(1,14,15,9,-1)       175.4956         estimate D2E/DX2                !
 ! A21   L(1,3,2,7,-2)         168.1489         estimate D2E/DX2                !
 ! A22   L(1,10,11,8,-2)       173.2618         estimate D2E/DX2                !
 ! A23   L(1,12,13,7,-2)       183.1066         estimate D2E/DX2                !
 ! A24   L(1,14,15,9,-2)       178.8168         estimate D2E/DX2                !
 ! D1    D(10,1,2,4)          -163.9748         estimate D2E/DX2                !
 ! D2    D(10,1,2,5)            73.0402         estimate D2E/DX2                !
 ! D3    D(10,1,2,6)           -49.8238         estimate D2E/DX2                !
 ! D4    D(12,1,2,4)            73.3047         estimate D2E/DX2                !
 ! D5    D(12,1,2,5)           -49.6803         estimate D2E/DX2                !
 ! D6    D(12,1,2,6)          -172.5443         estimate D2E/DX2                !
 ! D7    D(14,1,2,4)           -44.7927         estimate D2E/DX2                !
 ! D8    D(14,1,2,5)          -167.7777         estimate D2E/DX2                !
 ! D9    D(14,1,2,6)            69.3582         estimate D2E/DX2                !
 ! D10   D(3,2,4,9)            165.9163         estimate D2E/DX2                !
 ! D11   D(5,2,4,9)            -73.0402         estimate D2E/DX2                !
 ! D12   D(6,2,4,9)             42.6622         estimate D2E/DX2                !
 ! D13   D(3,2,5,7)             35.3287         estimate D2E/DX2                !
 ! D14   D(4,2,5,7)            -83.7664         estimate D2E/DX2                !
 ! D15   D(6,2,5,7)            159.3962         estimate D2E/DX2                !
 ! D16   D(3,2,6,8)             88.6232         estimate D2E/DX2                !
 ! D17   D(4,2,6,8)           -153.5246         estimate D2E/DX2                !
 ! D18   D(5,2,6,8)            -32.1994         estimate D2E/DX2                !
 --------------------------------------------------------------------------------
 Trust Radius=3.00D-01 FncErr=1.00D-07 GrdErr=1.00D-06 EigMax=2.50D+02 EigMin=1.00D-04
 Number of steps in this run=     66 maximum allowed number of steps=    100.
 GradGradGradGradGradGradGradGradGradGradGradGradGradGradGradGradGradGrad

                          Input orientation:                          
 ---------------------------------------------------------------------
 Center     Atomic      Atomic             Coordinates (Angstroms)
 Number     Number       Type             X           Y           Z
 ---------------------------------------------------------------------
      1         40           0        1.378390   -0.013670   -0.010290
      2         14           0       -2.196520   -0.139920    0.020070
      3          8           0       -0.574980   -0.284420    0.016540
      4          8           0       -2.533720    1.309160    0.740760
      5          8           0       -2.877040   -1.445660    0.790490
      6          8           0       -2.895150   -0.110870   -1.479540
      7          1           0       -2.384990   -1.800530    1.539030
      8          1           0       -3.128680   -0.971400   -1.845400
      9          1           0       -3.433640    1.635810    0.631220
     10          8           0        2.152390   -1.313120   -1.219600
     11          1           0        2.657510   -1.851050   -1.828870
     12          8           0        2.044020   -0.292070    1.787580
     13          1           0        2.510110   -0.316100    2.623130
     14          8           0        1.781950    1.775200   -0.611100
     15          1           0        1.913990    2.684420   -0.879110
 ---------------------------------------------------------------------
                    Distance matrix (angstroms):
                    1          2          3          4          5
     1  Zr   0.000000
     2  Si   3.577267   0.000000
     3  O    1.972227   1.627969   0.000000
     4  O    4.197447   1.653158   2.626910   0.000000
     5  O    4.560760   1.661810   2.692017   2.776576   0.000000
     6  O    4.520098   1.654617   2.766146   2.660235   2.633444
     7  H    4.444805   2.258403   2.809395   3.213958   0.963513
     8  H    4.959693   2.245052   3.234215   3.499022   2.690011
     9  H    5.127178   2.248819   3.498150   0.963616   3.135383
    10  O    1.936512   4.671852   3.166198   5.716554   5.417859
    11  H    2.884328   5.468835   4.038423   6.598393   6.136500
    12  O    1.937242   4.596675   3.161614   4.961398   5.151872
    13  H    2.882214   5.381387   4.038947   5.623612   5.801367
    14  O    1.929738   4.460301   3.192348   4.546397   5.834773
    15  H    2.884685   5.067713   3.976326   4.929244   6.542102
                    6          7          8          9         10
     6  O    0.000000
     7  H    3.496710   0.000000
     8  H    0.963795   3.562990   0.000000
     9  H    2.792162   3.705701   3.608904   0.000000
    10  O    5.195251   5.332488   5.328987   6.582207   0.000000
    11  H    5.829433   6.064001   5.852696   7.437227   0.956935
    12  O    5.924720   4.685441   6.357425   5.921034   3.177644
    13  H    6.789025   5.228844   7.224481   6.565502   3.986049
    14  O    5.117295   5.896804   5.760347   5.363317   3.169419
    15  H    5.594818   6.666589   6.302956   5.654894   4.019091
                   11         12         13         14         15
    11  H    0.000000
    12  O    3.985662   0.000000
    13  H    4.711486   0.957059   0.000000
    14  O    3.924189   3.177413   3.919693   0.000000
    15  H    4.693118   3.998454   4.650179   0.957050   0.000000
 Stoichiometry    H6O7SiZr
 Framework group  C1[X(H6O7SiZr)]
 Deg. of freedom    39
 Full point group                 C1      NOp   1
 Largest Abelian subgroup         C1      NOp   1
 Largest concise Abelian subgroup C1      NOp   1
                         Standard orientation:                         
 ---------------------------------------------------------------------
 Center     Atomic      Atomic             Coordinates (Angstroms)
 Number     Number       Type             X           Y           Z
 ---------------------------------------------------------------------
      1         40           0        1.384955   -0.009757   -0.010167
      2         14           0       -2.192232   -0.012196    0.013798
      3          8           0       -0.576620   -0.212335    0.019241
      4          8           0       -2.480674    1.468712    0.689550
      5          8           0       -2.918674   -1.269934    0.821256
      6          8           0       -2.886731   -0.004475   -1.487991
      7          1           0       -2.440483   -1.618724    1.581543
      8          1           0       -3.149070   -0.867134   -1.828429
      9          1           0       -3.368621    1.822615    0.567658
     10          8           0        2.115972   -1.370948   -1.177579
     11          1           0        2.603385   -1.944061   -1.768929
     12          8           0        2.037353   -0.256427    1.797161
     13          1           0        2.500826   -0.271203    2.634380
     14          8           0        1.850919    1.745239   -0.663434
     15          1           0        2.014652    2.640879   -0.958331
 ---------------------------------------------------------------------
 Rotational constants (GHZ):           1.6275261           0.4729332           0.4700538
 General basis read from cards:  (5D, 7F)
 ======================================================================================================
                                       Pseudopotential Parameters
 ======================================================================================================
  Center     Atomic      Valence      Angular      Power
  Number     Number     Electrons     Momentum     of R      Exponent        Coefficient   SO-Coeffient
 ======================================================================================================
    1         40           12
                                      G and up 
                                                     2        1.0000000        0.00000000    0.00000000
                                      S - G
                                                     2        8.6365280      150.24299400    0.00000000
                                                     2        3.7176390       18.78003600    0.00000000
                                      P - G
                                                     2        7.6267280       33.19279100    0.00000000
                                                     2        7.4532070       66.38903900    0.00000000
                                                     2        3.3583890        4.62072600    0.00000000
                                                     2        3.2297380        9.26027000    0.00000000
                                      D - G
                                                     2        5.9380860       13.99338300    0.00000000
                                                     2        5.8255440       20.99588200    0.00000000
                                                     2        2.2050190        2.28516600    0.00000000
                                                     2        2.2062920        3.44126000    0.00000000
                                      F - G
                                                     2        4.8002150       -5.23932000    0.00000000
                                                     2        4.7989920       -6.98742400    0.00000000
    2         14
                                   No pseudopotential on this center.
    3          8
                                   No pseudopotential on this center.
    4          8
                                   No pseudopotential on this center.
    5          8
                                   No pseudopotential on this center.
    6          8
                                   No pseudopotential on this center.
    7          1
                                   No pseudopotential on this center.
    8          1
                                   No pseudopotential on this center.
    9          1
                                   No pseudopotential on this center.
   10          8
                                   No pseudopotential on this center.
   11          1
                                   No pseudopotential on this center.
   12          8
                                   No pseudopotential on this center.
   13          1
                                   No pseudopotential on this center.
   14          8
                                   No pseudopotential on this center.
   15          1
                                   No pseudopotential on this center.
 ======================================================================================================
 There are   300 symmetry adapted cartesian basis functions of A   symmetry.
 There are   266 symmetry adapted basis functions of A   symmetry.
   266 basis functions,   576 primitive gaussians,   300 cartesian basis functions
    44 alpha electrons       44 beta electrons
       nuclear repulsion energy       631.2437511765 Hartrees.
 NAtoms=   15 NActive=   15 NUniq=   15 SFac= 1.00D+00 NAtFMM=   60 NAOKFM=F Big=F
 Integral buffers will be    131072 words long.
 Raffenetti 2 integral format.
 Two-electron integral symmetry is turned on.
 Nuclear repulsion after empirical dispersion term =      631.2335528765 Hartrees.
 One-electron integrals computed using PRISM.
 PrsmSu:  requested number of processors reduced to:   4 ShMem   1 Linda.
   1 Symmetry operations used in ECPInt.
 ECPInt:  NShTT=    3321 NPrTT=   20810 LenC2=    3169 LenP2D=   14968.
 LDataN:  DoStor=T MaxTD1= 8 Len=  415
 NBasis=   266 RedAO= T EigKep=  1.02D-04  NBF=   266
 NBsUse=   266 1.00D-06 EigRej= -1.00D+00 NBFU=   266
 Defaulting to unpruned grid for atomic number  40.
 ExpMin= 1.01D-02 ExpMax= 1.61D+04 ExpMxC= 2.43D+03 IAcc=3 IRadAn=         5 AccDes= 0.00D+00
 Harris functional with IExCor=  402 and IRadAn=       5 diagonalized for initial guess.
 HarFok:  IExCor=  402 AccDes= 0.00D+00 IRadAn=         5 IDoV= 1 UseB2=F ITyADJ=14
 ICtDFT=  3500011 ScaDFX=  1.000000  1.000000  1.000000  1.000000
 Defaulting to unpruned grid for atomic number  40.
 FoFCou: FMM=F IPFlag=           0 FMFlag=      100000 FMFlg1=           0
         NFxFlg=           0 DoJE=T BraDBF=F KetDBF=T FulRan=T
         wScrn=  0.000000 ICntrl=       500 IOpCl=  0 I1Cent=   200000004 NGrid=           0
         NMat0=    1 NMatS0=      1 NMatT0=    0 NMatD0=    1 NMtDS0=    0 NMtDT0=    0
 Petite list used in FoFCou.
 Requested convergence on RMS density matrix=1.00D-08 within 128 cycles.
 Requested convergence on MAX density matrix=1.00D-06.
 Requested convergence on             energy=1.00D-06.
 No special actions if energy rises.
 Defaulting to unpruned grid for atomic number  40.
 Defaulting to unpruned grid for atomic number  40.
 Defaulting to unpruned grid for atomic number  40.
 Defaulting to unpruned grid for atomic number  40.
 Defaulting to unpruned grid for atomic number  40.
 Defaulting to unpruned grid for atomic number  40.
 Defaulting to unpruned grid for atomic number  40.
 Defaulting to unpruned grid for atomic number  40.
 Defaulting to unpruned grid for atomic number  40.
 Defaulting to unpruned grid for atomic number  40.
 Defaulting to unpruned grid for atomic number  40.
 Defaulting to unpruned grid for atomic number  40.
 Defaulting to unpruned grid for atomic number  40.
 Defaulting to unpruned grid for atomic number  40.
 Defaulting to unpruned grid for atomic number  40.
 Defaulting to unpruned grid for atomic number  40.
 SCF Done:  E(RB3LYP) =  -867.127829770     A.U. after   12 cycles
            NFock= 12  Conv=0.98D-08     -V/T= 2.0439

 **********************************************************************

            Population analysis using the SCF Density.

 **********************************************************************

 Orbital symmetries:
       Occupied  (A) (A) (A) (A) (A) (A) (A) (A) (A) (A) (A) (A)
                 (A) (A) (A) (A) (A) (A) (A) (A) (A) (A) (A) (A)
                 (A) (A) (A) (A) (A) (A) (A) (A) (A) (A) (A) (A)
                 (A) (A) (A) (A) (A) (A) (A) (A)
       Virtual   (A) (A) (A) (A) (A) (A) (A) (A) (A) (A) (A) (A)
                 (A) (A) (A) (A) (A) (A) (A) (A) (A) (A) (A) (A)
                 (A) (A) (A) (A) (A) (A) (A) (A) (A) (A) (A) (A)
                 (A) (A) (A) (A) (A) (A) (A) (A) (A) (A) (A) (A)
                 (A) (A) (A) (A) (A) (A) (A) (A) (A) (A) (A) (A)
                 (A) (A) (A) (A) (A) (A) (A) (A) (A) (A) (A) (A)
                 (A) (A) (A) (A) (A) (A) (A) (A) (A) (A) (A) (A)
                 (A) (A) (A) (A) (A) (A) (A) (A) (A) (A) (A) (A)
                 (A) (A) (A) (A) (A) (A) (A) (A) (A) (A) (A) (A)
                 (A) (A) (A) (A) (A) (A) (A) (A) (A) (A) (A) (A)
                 (A) (A) (A) (A) (A) (A) (A) (A) (A) (A) (A) (A)
                 (A) (A) (A) (A) (A) (A) (A) (A) (A) (A) (A) (A)
                 (A) (A) (A) (A) (A) (A) (A) (A) (A) (A) (A) (A)
                 (A) (A) (A) (A) (A) (A) (A) (A) (A) (A) (A) (A)
                 (A) (A) (A) (A) (A) (A) (A) (A) (A) (A) (A) (A)
                 (A) (A) (A) (A) (A) (A) (A) (A) (A) (A) (A) (A)
                 (A) (A) (A) (A) (A) (A) (A) (A) (A) (A) (A) (A)
                 (A) (A) (A) (A) (A) (A) (A) (A) (A) (A) (A) (A)
                 (A) (A) (A) (A) (A) (A)
 The electronic state is 1-A.
 Alpha  occ. eigenvalues --  -66.19947 -19.15198 -19.15140 -19.14883 -19.14419
 Alpha  occ. eigenvalues --  -19.14337 -19.14256 -19.13206  -5.34042  -3.70007
 Alpha  occ. eigenvalues --   -3.70002  -3.69962  -2.11261  -1.27565  -1.27464
 Alpha  occ. eigenvalues --   -1.27150  -1.02775  -0.99590  -0.99404  -0.96663
 Alpha  occ. eigenvalues --   -0.95461  -0.95403  -0.94108  -0.57458  -0.52261
 Alpha  occ. eigenvalues --   -0.51562  -0.50391  -0.49708  -0.49662  -0.45676
 Alpha  occ. eigenvalues --   -0.39577  -0.37802  -0.37240  -0.36068  -0.35650
 Alpha  occ. eigenvalues --   -0.34675  -0.34231  -0.33885  -0.32975  -0.32799
 Alpha  occ. eigenvalues --   -0.32065  -0.31326  -0.31212  -0.30658
 Alpha virt. eigenvalues --   -0.02944  -0.01298  -0.00748  -0.00572   0.00259
 Alpha virt. eigenvalues --    0.00351   0.01031   0.01262   0.01722   0.02308
 Alpha virt. eigenvalues --    0.02437   0.02938   0.03170   0.03275   0.03330
 Alpha virt. eigenvalues --    0.04243   0.04511   0.04603   0.05266   0.05772
 Alpha virt. eigenvalues --    0.06813   0.09098   0.09533   0.09805   0.10080
 Alpha virt. eigenvalues --    0.10133   0.11210   0.12498   0.13492   0.13747
 Alpha virt. eigenvalues --    0.14745   0.15421   0.15957   0.16254   0.17973
 Alpha virt. eigenvalues --    0.18355   0.18395   0.18934   0.19513   0.19844
 Alpha virt. eigenvalues --    0.20129   0.20375   0.21308   0.21680   0.22401
 Alpha virt. eigenvalues --    0.23125   0.24250   0.25053   0.26171   0.26395
 Alpha virt. eigenvalues --    0.26969   0.27400   0.27844   0.28375   0.28622
 Alpha virt. eigenvalues --    0.29254   0.29478   0.29542   0.29858   0.30591
 Alpha virt. eigenvalues --    0.31234   0.32820   0.34231   0.34622   0.35454
 Alpha virt. eigenvalues --    0.35649   0.35885   0.37152   0.37822   0.38961
 Alpha virt. eigenvalues --    0.41534   0.44058   0.44416   0.46567   0.47565
 Alpha virt. eigenvalues --    0.48097   0.49513   0.50808   0.51527   0.52569
 Alpha virt. eigenvalues --    0.54962   0.57392   0.58235   0.60310   0.60619
 Alpha virt. eigenvalues --    0.61431   0.62356   0.63025   0.64420   0.65048
 Alpha virt. eigenvalues --    0.66034   0.68117   0.68979   0.72430   0.73711
 Alpha virt. eigenvalues --    0.74788   0.76174   0.77251   0.78633   0.81753
 Alpha virt. eigenvalues --    0.85621   0.86229   0.96123   0.97771   0.98905
 Alpha virt. eigenvalues --    1.01694   1.02524   1.04705   1.05593   1.06521
 Alpha virt. eigenvalues --    1.07670   1.18590   1.20001   1.20599   1.21501
 Alpha virt. eigenvalues --    1.21573   1.22652   1.23370   1.23798   1.24422
 Alpha virt. eigenvalues --    1.25516   1.26259   1.27970   1.28369   1.28733
 Alpha virt. eigenvalues --    1.28935   1.30137   1.31216   1.31505   1.32856
 Alpha virt. eigenvalues --    1.33101   1.36722   1.42738   1.43577   1.45698
 Alpha virt. eigenvalues --    1.48927   1.53137   1.57487   1.59753   1.61126
 Alpha virt. eigenvalues --    1.63065   1.63154   1.63691   1.64240   1.67828
 Alpha virt. eigenvalues --    1.69251   1.71699   1.72264   1.72603   1.73005
 Alpha virt. eigenvalues --    1.73731   1.74312   1.74871   1.76546   1.77353
 Alpha virt. eigenvalues --    1.79192   1.80546   1.83020   1.83655   1.84530
 Alpha virt. eigenvalues --    1.85936   1.87994   1.90932   1.91282   1.92774
 Alpha virt. eigenvalues --    1.92994   1.94194   1.94875   1.95801   1.96958
 Alpha virt. eigenvalues --    1.98912   1.99299   2.00224   2.01643   2.06898
 Alpha virt. eigenvalues --    2.07008   2.08383   2.10132   2.14676   2.17770
 Alpha virt. eigenvalues --    2.19788   2.20251   2.21643   2.26732   2.31969
 Alpha virt. eigenvalues --    2.37073   2.41909   2.42333   2.43319   2.45064
 Alpha virt. eigenvalues --    2.51040   2.58549   2.59147   2.62580   2.63465
 Alpha virt. eigenvalues --    2.64669   2.66770   2.68243   2.68760   2.73080
 Alpha virt. eigenvalues --    2.78501   2.80362   2.80832   2.83749   2.87665
 Alpha virt. eigenvalues --    2.90362   2.91104   2.91418   2.92642   2.93860
 Alpha virt. eigenvalues --    3.02117   3.17653   3.47063   3.48328   3.51393
 Alpha virt. eigenvalues --    3.54384   3.57296   3.88768   4.13321   4.14735
 Alpha virt. eigenvalues --    4.18512  31.06972
          Condensed to atoms (all electrons):
               1          2          3          4          5          6
     1  Zr  10.431476   0.137921  -0.030645   0.000582  -0.073877  -0.042708
     2  Si   0.137921  12.901523  -0.685751  -0.068307  -0.124758   0.006415
     3  O   -0.030645  -0.685751   8.959646   0.116025   0.275563   0.102699
     4  O    0.000582  -0.068307   0.116025   8.565319  -0.029472   0.024382
     5  O   -0.073877  -0.124758   0.275563  -0.029472   8.523598   0.026669
     6  O   -0.042708   0.006415   0.102699   0.024382   0.026669   8.521197
     7  H   -0.003125   0.027412  -0.002117  -0.006496   0.243263   0.006465
     8  H    0.001356   0.061436  -0.021710   0.006656  -0.005820   0.232667
     9  H   -0.004123   0.036798   0.009974   0.223327  -0.005684  -0.005738
    10  O    0.034230  -0.013251  -0.025451   0.000616   0.000959   0.001004
    11  H   -0.087186   0.000784  -0.001099   0.000002   0.000002   0.000006
    12  O    0.038591  -0.013340  -0.026981   0.000125   0.001742   0.000283
    13  H   -0.086527   0.000794  -0.000876   0.000001   0.000003   0.000001
    14  O    0.027474  -0.020213  -0.026821   0.002137   0.000972  -0.000395
    15  H   -0.090518   0.001037  -0.000690   0.000060   0.000003   0.000007
               7          8          9         10         11         12
     1  Zr  -0.003125   0.001356  -0.004123   0.034230  -0.087186   0.038591
     2  Si   0.027412   0.061436   0.036798  -0.013251   0.000784  -0.013340
     3  O   -0.002117  -0.021710   0.009974  -0.025451  -0.001099  -0.026981
     4  O   -0.006496   0.006656   0.223327   0.000616   0.000002   0.000125
     5  O    0.243263  -0.005820  -0.005684   0.000959   0.000002   0.001742
     6  O    0.006465   0.232667  -0.005738   0.001004   0.000006   0.000283
     7  H    0.370577   0.000058   0.000092   0.000021   0.000000  -0.000075
     8  H    0.000058   0.358783   0.000057  -0.000005   0.000000  -0.000007
     9  H    0.000092   0.000057   0.370525  -0.000000  -0.000000  -0.000013
    10  O    0.000021  -0.000005  -0.000000   8.603407   0.326654  -0.032485
    11  H    0.000000   0.000000  -0.000000   0.326654   0.382365  -0.000801
    12  O   -0.000075  -0.000007  -0.000013  -0.032485  -0.000801   8.598975
    13  H   -0.000000  -0.000000  -0.000000  -0.000765  -0.000008   0.325657
    14  O   -0.000007   0.000006  -0.000057  -0.034160  -0.001310  -0.036756
    15  H    0.000000  -0.000000  -0.000000  -0.000681  -0.000008  -0.000942
              13         14         15
     1  Zr  -0.086527   0.027474  -0.090518
     2  Si   0.000794  -0.020213   0.001037
     3  O   -0.000876  -0.026821  -0.000690
     4  O    0.000001   0.002137   0.000060
     5  O    0.000003   0.000972   0.000003
     6  O    0.000001  -0.000395   0.000007
     7  H   -0.000000  -0.000007   0.000000
     8  H   -0.000000   0.000006  -0.000000
     9  H   -0.000000  -0.000057  -0.000000
    10  O   -0.000765  -0.034160  -0.000681
    11  H   -0.000008  -0.001310  -0.000008
    12  O    0.325657  -0.036756  -0.000942
    13  H    0.382189  -0.001459  -0.000011
    14  O   -0.001459   8.608461   0.331624
    15  H   -0.000011   0.331624   0.379192
 Mulliken charges:
               1
     1  Zr   1.747078
     2  Si   1.751500
     3  O   -0.641765
     4  O   -0.834956
     5  O   -0.833163
     6  O   -0.872956
     7  H    0.363931
     8  H    0.366523
     9  H    0.374842
    10  O   -0.860091
    11  H    0.380599
    12  O   -0.853973
    13  H    0.381002
    14  O   -0.849498
    15  H    0.380927
 Sum of Mulliken charges =  -0.00000
 Mulliken charges with hydrogens summed into heavy atoms:
               1
     1  Zr   1.747078
     2  Si   1.751500
     3  O   -0.641765
     4  O   -0.460115
     5  O   -0.469232
     6  O   -0.506433
    10  O   -0.479492
    12  O   -0.472971
    14  O   -0.468571
 Electronic spatial extent (au):  <R**2>=           2260.4619
 Charge=              0.0000 electrons
 Dipole moment (field-independent basis, Debye):
    X=              1.9226    Y=             -0.6706    Z=              0.3128  Tot=              2.0601
 Quadrupole moment (field-independent basis, Debye-Ang):
   XX=            -68.9368   YY=            -68.3629   ZZ=            -68.0221
   XY=             -0.2129   XZ=             -0.0082   YZ=              0.6385
 Traceless Quadrupole moment (field-independent basis, Debye-Ang):
   XX=             -0.4962   YY=              0.0777   ZZ=              0.4185
   XY=             -0.2129   XZ=             -0.0082   YZ=              0.6385
 Octapole moment (field-independent basis, Debye-Ang**2):
  XXX=             48.6884  YYY=             12.4786  ZZZ=             14.8628  XYY=             21.4441
  XXY=              9.2863  XXZ=             -1.1655  XZZ=             29.6678  YZZ=            -18.2087
  YYZ=            -13.3659  XYZ=             -3.9084
 Hexadecapole moment (field-independent basis, Debye-Ang**3):
 XXXX=          -1903.5321 YYYY=           -359.7481 ZZZZ=           -349.9084 XXXY=           -101.1106
 XXXZ=             19.6296 YYYX=             10.2657 YYYZ=            -15.6041 ZZZX=             30.0868
 ZZZY=              6.2830 XXYY=           -334.0843 XXZZ=           -331.9828 YYZZ=           -111.2005
 XXYZ=             52.4776 YYXZ=            -34.2941 ZZXY=             17.7299
 N-N= 6.312335528765D+02 E-N=-3.300004127068D+03  KE= 8.306816136314D+02
 PrsmSu:  requested number of processors reduced to:   2 ShMem   1 Linda.
 PrsmSu:  requested number of processors reduced to:  10 ShMem   1 Linda.
   1 Symmetry operations used in ECPInt.
 ECPInt:  NShTT=    3321 NPrTT=   20810 LenC2=    3169 LenP2D=   14968.
 LDataN:  DoStor=T MaxTD1= 9 Len=  602
 Calling FoFJK, ICntrl=      2127 FMM=F ISym2X=0 I1Cent= 0 IOpClX= 0 NMat=1 NMatS=1 NMatT=0.
 CoulSu:  requested number of processors reduced to:  10 ShMem   1 Linda.
 Defaulting to unpruned grid for atomic number  40.
 Defaulting to unpruned grid for atomic number  40.
 Defaulting to unpruned grid for atomic number  40.
 Defaulting to unpruned grid for atomic number  40.
 Defaulting to unpruned grid for atomic number  40.
 Defaulting to unpruned grid for atomic number  40.
 Defaulting to unpruned grid for atomic number  40.
 Defaulting to unpruned grid for atomic number  40.
 Defaulting to unpruned grid for atomic number  40.
 Defaulting to unpruned grid for atomic number  40.
 Defaulting to unpruned grid for atomic number  40.
 Defaulting to unpruned grid for atomic number  40.
 Defaulting to unpruned grid for atomic number  40.
 Defaulting to unpruned grid for atomic number  40.
 Defaulting to unpruned grid for atomic number  40.
 Defaulting to unpruned grid for atomic number  40.
 ***** Axes restored to original set *****
 -------------------------------------------------------------------
 Center     Atomic                   Forces (Hartrees/Bohr)
 Number     Number              X              Y              Z
 -------------------------------------------------------------------
      1       40          -0.000773172   -0.000070450   -0.000074054
      2       14           0.000164422    0.000590359   -0.000012875
      3        8           0.000520108   -0.000258733    0.000068495
      4        8           0.000044638   -0.000184058   -0.000043480
      5        8          -0.000017684   -0.000143880    0.000033678
      6        8           0.000014445   -0.000068883    0.000014153
      7        1          -0.000045099    0.000028503    0.000027308
      8        1           0.000000652    0.000005023   -0.000003671
      9        1           0.000003216   -0.000030542   -0.000011753
     10        8           0.000016535    0.000027667    0.000045363
     11        1           0.000008418   -0.000005171   -0.000012779
     12        8          -0.000015729   -0.000044355   -0.000024751
     13        1           0.000014094    0.000007626    0.000016101
     14        8           0.000063242    0.000153438    0.000001728
     15        1           0.000001914   -0.000006543   -0.000023461
 -------------------------------------------------------------------
 Cartesian Forces:  Max     0.000773172 RMS     0.000178309

 GradGradGradGradGradGradGradGradGradGradGradGradGradGradGradGradGradGrad
 Berny optimization.
 FormGI is forming the generalized inverse of G from B-inverse, IUseBI=4.
 Internal  Forces:  Max     0.000671121 RMS     0.000122280
 Search for a local minimum.
 Step number   1 out of a maximum of   66
 All quantities printed in internal units (Hartrees-Bohrs-Radians)
 Mixed Optimization -- En-DIIS/RFO-DIIS
 Second derivative matrix not updated -- first step.
 ITU=  0
     Eigenvalues ---    0.00230   0.01596   0.01596   0.01597   0.01597
     Eigenvalues ---    0.01598   0.01598   0.03233   0.03526   0.03617
     Eigenvalues ---    0.03636   0.07193   0.08279   0.08843   0.10051
     Eigenvalues ---    0.12576   0.16000   0.16000   0.16000   0.19014
     Eigenvalues ---    0.19476   0.20765   0.21482   0.21527   0.21945
     Eigenvalues ---    0.25000   0.25000   0.25000   0.40907   0.41957
     Eigenvalues ---    0.42174   0.46025   0.54665   0.54703   0.54707
     Eigenvalues ---    0.56111   0.56113   0.561381000.000001000.00000
     Eigenvalues --- 1000.000001000.000001000.000001000.000001000.00000
     Eigenvalues --- 1000.000001000.000001000.000001000.000001000.00000
     Eigenvalues --- 1000.000001000.000001000.000001000.000001000.00000
     Eigenvalues --- 1000.00000
 RFO step:  Lambda=-4.01314818D-06 EMin= 2.30000000D-03
 Linear search not attempted -- first point.
 Iteration  1 RMS(Cart)=  0.00499026 RMS(Int)=  0.00000523
 Iteration  2 RMS(Cart)=  0.00000952 RMS(Int)=  0.00000072
 Iteration  3 RMS(Cart)=  0.00000000 RMS(Int)=  0.00000072
 Iteration  1 RMS(Cart)=  0.00000086 RMS(Int)=  0.00000051
 Variable       Old X    -DE/DX   Delta X   Delta X   Delta X     New X
                                 (Linear)    (Quad)   (Total)
    R1        3.72697  -0.00067   0.00000  -0.00351  -0.00351   3.72346
    R2        3.65948  -0.00003   0.00000  -0.00012  -0.00012   3.65936
    R3        3.66086  -0.00000   0.00000  -0.00001  -0.00001   3.66084
    R4        3.64668   0.00016   0.00000   0.00071   0.00071   3.64739
    R5        3.07642  -0.00015   0.00000  -0.00027  -0.00027   3.07615
    R6        3.12402  -0.00022   0.00000  -0.00053  -0.00053   3.12349
    R7        3.14037   0.00014   0.00000   0.00035   0.00035   3.14071
    R8        3.12677  -0.00002   0.00000  -0.00004  -0.00004   3.12673
    R9        1.82097  -0.00001   0.00000  -0.00002  -0.00002   1.82095
   R10        1.82078  -0.00001   0.00000  -0.00002  -0.00002   1.82075
   R11        1.82131  -0.00000   0.00000  -0.00001  -0.00001   1.82130
   R12        1.80835   0.00002   0.00000   0.00003   0.00003   1.80837
   R13        1.80858   0.00002   0.00000   0.00004   0.00004   1.80862
   R14        1.80856   0.00000   0.00000   0.00000   0.00000   1.80856
    A1        1.88835   0.00008   0.00000   0.00034   0.00034   1.88869
    A2        1.88384  -0.00007   0.00000  -0.00028  -0.00028   1.88356
    A3        1.91625   0.00012   0.00000   0.00046   0.00046   1.91671
    A4        1.92387  -0.00011   0.00000  -0.00042  -0.00042   1.92345
    A5        1.92200  -0.00002   0.00000  -0.00002  -0.00002   1.92198
    A6        1.92870  -0.00000   0.00000  -0.00007  -0.00007   1.92862
    A7        0.12434   0.00018   0.00000   0.00000   0.00000   0.12434
    A8        1.85659   0.00005   0.00000   0.00034   0.00034   1.85693
    A9        1.91681   0.00000   0.00000   0.00001   0.00001   1.91682
   A10        2.00441  -0.00004   0.00000  -0.00025  -0.00025   2.00416
   A11        1.98570  -0.00006   0.00000  -0.00025  -0.00025   1.98545
   A12        1.86878   0.00008   0.00000   0.00041   0.00041   1.86919
   A13        1.83492  -0.00004   0.00000  -0.00029  -0.00029   1.83463
   A14        2.02425  -0.00006   0.00000  -0.00035  -0.00035   2.02389
   A15        2.02688   0.00002   0.00000   0.00016   0.00016   2.02703
   A16        2.01603   0.00001   0.00000   0.00006   0.00006   2.01609
   A17        3.30751   0.00037   0.00000   0.00140   0.00140   3.30891
   A18        3.27277   0.00000   0.00000   0.00004   0.00004   3.27281
   A19        3.32962   0.00001   0.00000   0.00076   0.00076   3.33038
   A20        3.06298   0.00001   0.00000   0.00085   0.00085   3.06383
   A21        2.93475  -0.00017   0.00000   0.00167   0.00168   2.93643
   A22        3.02399  -0.00001   0.00000  -0.00034  -0.00034   3.02365
   A23        3.19581   0.00001   0.00000   0.00066   0.00066   3.19647
   A24        3.12094   0.00004   0.00000   0.00260   0.00260   3.12355
    D1       -2.86190   0.00001   0.00000   0.00527   0.00527  -2.85663
    D2        1.27479   0.00001   0.00000   0.00470   0.00470   1.27949
    D3       -0.86959   0.00001   0.00000   0.00575   0.00575  -0.86384
    D4        1.27941   0.00001   0.00000   0.00539   0.00539   1.28480
    D5       -0.86708   0.00000   0.00000   0.00482   0.00482  -0.86226
    D6       -3.01147   0.00001   0.00000   0.00588   0.00588  -3.00559
    D7       -0.78178   0.00002   0.00000   0.00495   0.00495  -0.77683
    D8       -2.92827   0.00002   0.00000   0.00438   0.00438  -2.92389
    D9        1.21053   0.00002   0.00000   0.00543   0.00543   1.21596
   D10        2.89579   0.00001   0.00000   0.00005   0.00005   2.89583
   D11       -1.27479   0.00001   0.00000   0.00015   0.00015  -1.27464
   D12        0.74460  -0.00001   0.00000  -0.00008  -0.00008   0.74452
   D13        0.61660   0.00007   0.00000   0.00122   0.00122   0.61783
   D14       -1.46200   0.00004   0.00000   0.00094   0.00094  -1.46106
   D15        2.78199  -0.00001   0.00000   0.00075   0.00075   2.78274
   D16        1.54677  -0.00005   0.00000  -0.00033  -0.00033   1.54643
   D17       -2.67951   0.00004   0.00000   0.00023   0.00023  -2.67928
   D18       -0.56199   0.00000   0.00000  -0.00000  -0.00000  -0.56199
         Item               Value     Threshold  Converged?
 Maximum Force            0.000684     0.000450     NO 
 RMS     Force            0.000108     0.000300     YES
 Maximum Displacement     0.012730     0.001800     NO 
 RMS     Displacement     0.004990     0.001200     NO 
 Predicted change in Energy=-2.005970D-06
 GradGradGradGradGradGradGradGradGradGradGradGradGradGradGradGradGradGrad

                          Input orientation:                          
 ---------------------------------------------------------------------
 Center     Atomic      Atomic             Coordinates (Angstroms)
 Number     Number       Type             X           Y           Z
 ---------------------------------------------------------------------
      1         40           0        1.377192   -0.013644   -0.009613
      2         14           0       -2.195723   -0.139563    0.020288
      3          8           0       -0.574322   -0.284045    0.019233
      4          8           0       -2.534354    1.311150    0.736367
      5          8           0       -2.877311   -1.443265    0.793606
      6          8           0       -2.892126   -0.115575   -1.480425
      7          1           0       -2.386856   -1.795465    1.544435
      8          1           0       -3.124859   -0.977330   -1.843896
      9          1           0       -3.434296    1.636912    0.624483
     10          8           0        2.150107   -1.310690   -1.222090
     11          1           0        2.654695   -1.847067   -1.833191
     12          8           0        2.044735   -0.296257    1.786884
     13          1           0        2.512350   -0.321775    2.621559
     14          8           0        1.781033    1.776720   -0.606985
     15          1           0        1.913376    2.685675   -0.875746
 ---------------------------------------------------------------------
                    Distance matrix (angstroms):
                    1          2          3          4          5
     1  Zr   0.000000
     2  Si   3.575259   0.000000
     3  O    1.970370   1.627826   0.000000
     4  O    4.196637   1.652879   2.626910   0.000000
     5  O    4.559581   1.661994   2.692063   2.776274   0.000000
     6  O    4.516719   1.654596   2.765785   2.660396   2.633286
     7  H    4.444998   2.258665   2.809965   3.213376   0.963501
     8  H    4.955981   2.245067   3.233749   3.499084   2.689757
     9  H    5.126093   2.248328   3.497979   0.963604   3.134697
    10  O    1.936448   4.669185   3.165028   5.714349   5.418076
    11  H    2.884249   5.466032   4.037458   6.595695   6.137280
    12  O    1.937236   4.596401   3.159778   4.965421   5.150608
    13  H    2.882116   5.381986   4.037458   5.629354   5.800655
    14  O    1.930115   4.458722   3.191646   4.543558   5.833535
    15  H    2.885134   5.066512   3.976037   4.926513   6.541068
                    6          7          8          9         10
     6  O    0.000000
     7  H    3.496727   0.000000
     8  H    0.963793   3.562973   0.000000
     9  H    2.792096   3.704679   3.608726   0.000000
    10  O    5.188367   5.335982   5.321940   6.579039   0.000000
    11  H    5.821488   6.068629   5.844639   7.433309   0.956950
    12  O    5.922883   4.684592   6.353827   5.925208   3.177122
    13  H    6.788015   5.228210   7.221369   6.571710   3.985325
    14  O    5.116844   5.895796   5.760427   5.360571   3.169649
    15  H    5.595130   6.665574   6.303866   5.652273   4.018324
                   11         12         13         14         15
    11  H    0.000000
    12  O    3.985223   0.000000
    13  H    4.710794   0.957078   0.000000
    14  O    3.924117   3.177637   3.919440   0.000000
    15  H    4.691695   3.999846   4.651308   0.957051   0.000000
 Stoichiometry    H6O7SiZr
 Framework group  C1[X(H6O7SiZr)]
 Deg. of freedom    39
 Full point group                 C1      NOp   1
 Largest Abelian subgroup         C1      NOp   1
 Largest concise Abelian subgroup C1      NOp   1
                         Standard orientation:                         
 ---------------------------------------------------------------------
 Center     Atomic      Atomic             Coordinates (Angstroms)
 Number     Number       Type             X           Y           Z
 ---------------------------------------------------------------------
      1         40           0        1.384051   -0.009723   -0.010076
      2         14           0       -2.191127   -0.011914    0.013908
      3          8           0       -0.575665   -0.212052    0.020537
      4          8           0       -2.480789    1.466952    0.692921
      5          8           0       -2.918504   -1.271763    0.817604
      6          8           0       -2.883779   -0.001336   -1.488693
      7          1           0       -2.441727   -1.621832    1.578176
      8          1           0       -3.145447   -0.863353   -1.831262
      9          1           0       -3.368789    1.820585    0.570717
     10          8           0        2.113861   -1.362347   -1.188047
     11          1           0        2.600697   -1.930796   -1.784376
     12          8           0        2.038458   -0.270343    1.794560
     13          1           0        2.503521   -0.291153    2.630791
     14          8           0        1.850313    1.750277   -0.650655
     15          1           0        2.014333    2.647175   -0.941546
 ---------------------------------------------------------------------
 Rotational constants (GHZ):           1.6275279           0.4732791           0.4703947
 Basis read from rwf:  (5D, 7F)
 Pseudo-potential data read from rwf file.
 There are   300 symmetry adapted cartesian basis functions of A   symmetry.
 There are   266 symmetry adapted basis functions of A   symmetry.
   266 basis functions,   576 primitive gaussians,   300 cartesian basis functions
    44 alpha electrons       44 beta electrons
       nuclear repulsion energy       631.3467680779 Hartrees.
 NAtoms=   15 NActive=   15 NUniq=   15 SFac= 1.00D+00 NAtFMM=   60 NAOKFM=F Big=F
 Integral buffers will be    131072 words long.
 Raffenetti 2 integral format.
 Two-electron integral symmetry is turned on.
 Nuclear repulsion after empirical dispersion term =      631.3365678233 Hartrees.
 One-electron integrals computed using PRISM.
 PrsmSu:  requested number of processors reduced to:   4 ShMem   1 Linda.
   1 Symmetry operations used in ECPInt.
 ECPInt:  NShTT=    3321 NPrTT=   20810 LenC2=    3169 LenP2D=   14969.
 LDataN:  DoStor=T MaxTD1= 8 Len=  415
 NBasis=   266 RedAO= T EigKep=  1.02D-04  NBF=   266
 NBsUse=   266 1.00D-06 EigRej= -1.00D+00 NBFU=   266
 Defaulting to unpruned grid for atomic number  40.
 Initial guess from the checkpoint file:  "/localscratch/sarashs.35132331.0/Gau-9547.chk"
 B after Tr=     0.000000   -0.000000    0.000000
         Rot=    0.999996   -0.002677   -0.000015    0.000018 Ang=  -0.31 deg.
 Requested convergence on RMS density matrix=1.00D-08 within 128 cycles.
 Requested convergence on MAX density matrix=1.00D-06.
 Requested convergence on             energy=1.00D-06.
 No special actions if energy rises.
 Defaulting to unpruned grid for atomic number  40.
 Defaulting to unpruned grid for atomic number  40.
 Defaulting to unpruned grid for atomic number  40.
 Defaulting to unpruned grid for atomic number  40.
 Defaulting to unpruned grid for atomic number  40.
 Defaulting to unpruned grid for atomic number  40.
 Defaulting to unpruned grid for atomic number  40.
 Defaulting to unpruned grid for atomic number  40.
 Defaulting to unpruned grid for atomic number  40.
 Defaulting to unpruned grid for atomic number  40.
 Defaulting to unpruned grid for atomic number  40.
 Defaulting to unpruned grid for atomic number  40.
 Defaulting to unpruned grid for atomic number  40.
 Defaulting to unpruned grid for atomic number  40.
 Defaulting to unpruned grid for atomic number  40.
 Defaulting to unpruned grid for atomic number  40.
 SCF Done:  E(RB3LYP) =  -867.127832316     A.U. after    8 cycles
            NFock=  8  Conv=0.54D-08     -V/T= 2.0439
 PrsmSu:  requested number of processors reduced to:   2 ShMem   1 Linda.
 PrsmSu:  requested number of processors reduced to:  10 ShMem   1 Linda.
   1 Symmetry operations used in ECPInt.
 ECPInt:  NShTT=    3321 NPrTT=   20810 LenC2=    3169 LenP2D=   14969.
 LDataN:  DoStor=T MaxTD1= 9 Len=  602
 Calling FoFJK, ICntrl=      2127 FMM=F ISym2X=0 I1Cent= 0 IOpClX= 0 NMat=1 NMatS=1 NMatT=0.
 CoulSu:  requested number of processors reduced to:  10 ShMem   1 Linda.
 Defaulting to unpruned grid for atomic number  40.
 Defaulting to unpruned grid for atomic number  40.
 Defaulting to unpruned grid for atomic number  40.
 Defaulting to unpruned grid for atomic number  40.
 Defaulting to unpruned grid for atomic number  40.
 Defaulting to unpruned grid for atomic number  40.
 Defaulting to unpruned grid for atomic number  40.
 Defaulting to unpruned grid for atomic number  40.
 Defaulting to unpruned grid for atomic number  40.
 Defaulting to unpruned grid for atomic number  40.
 Defaulting to unpruned grid for atomic number  40.
 Defaulting to unpruned grid for atomic number  40.
 Defaulting to unpruned grid for atomic number  40.
 Defaulting to unpruned grid for atomic number  40.
 Defaulting to unpruned grid for atomic number  40.
 Defaulting to unpruned grid for atomic number  40.
 ***** Axes restored to original set *****
 -------------------------------------------------------------------
 Center     Atomic                   Forces (Hartrees/Bohr)
 Number     Number              X              Y              Z
 -------------------------------------------------------------------
      1       40           0.000049327    0.000184647   -0.000105486
      2       14          -0.000079559    0.000318663   -0.000017013
      3        8          -0.000074549   -0.000323267    0.000069370
      4        8           0.000046249   -0.000078445   -0.000023704
      5        8           0.000035029   -0.000062559   -0.000021628
      6        8           0.000025350   -0.000030231    0.000014682
      7        1          -0.000035249    0.000023872    0.000040099
      8        1          -0.000000540    0.000002684    0.000000803
      9        1          -0.000010025   -0.000003553    0.000000286
     10        8           0.000030269   -0.000028645   -0.000027209
     11        1          -0.000004288    0.000000050    0.000000563
     12        8           0.000000608   -0.000046760    0.000064893
     13        1           0.000003589    0.000006860   -0.000005874
     14        8           0.000017968    0.000051263    0.000023029
     15        1          -0.000004176   -0.000014578   -0.000012812
 -------------------------------------------------------------------
 Cartesian Forces:  Max     0.000323267 RMS     0.000082102

 GradGradGradGradGradGradGradGradGradGradGradGradGradGradGradGradGradGrad
 Berny optimization.
 Using GEDIIS/GDIIS optimizer.
 FormGI is forming the generalized inverse of G from B-inverse, IUseBI=4.
 Internal  Forces:  Max     0.000321373 RMS     0.000061477
 Search for a local minimum.
 Step number   2 out of a maximum of   66
 All quantities printed in internal units (Hartrees-Bohrs-Radians)
 Mixed Optimization -- En-DIIS/RFO-DIIS
 Swapping is turned off.
 Update second derivatives using D2CorX and points    1    2
 DE= -2.55D-06 DEPred=-2.01D-06 R= 1.27D+00
 TightC=F SS=  1.41D+00  RLast= 1.66D-02 DXNew= 5.0454D-01 4.9670D-02
 Trust test= 1.27D+00 RLast= 1.66D-02 DXMaxT set to 3.00D-01
 ITU=  1  0
     Eigenvalues ---    0.00170   0.01519   0.01596   0.01596   0.01597
     Eigenvalues ---    0.01598   0.01601   0.02950   0.03480   0.03617
     Eigenvalues ---    0.03636   0.07159   0.08272   0.08706   0.09951
     Eigenvalues ---    0.12599   0.15943   0.16000   0.16005   0.18754
     Eigenvalues ---    0.20741   0.21045   0.21510   0.21815   0.24530
     Eigenvalues ---    0.24834   0.25000   0.27755   0.40616   0.41653
     Eigenvalues ---    0.41986   0.46891   0.54665   0.54706   0.54725
     Eigenvalues ---    0.56109   0.56125   0.561511000.000001000.00000
     Eigenvalues --- 1000.000001000.000001000.000001000.000001000.00000
     Eigenvalues --- 1000.000001000.000001000.000001000.000001000.00000
     Eigenvalues --- 1000.000001000.000001000.000001000.000001000.00000
     Eigenvalues --- 1000.00000
 En-DIIS/RFO-DIIS/Sim-DIIS IScMMF=       -3 using points:     2    1
 RFO step:  Lambda=-1.49019301D-06.
 DidBck=F Rises=F RFO-DIIS coefs:    2.44189   -1.44189
 Iteration  1 RMS(Cart)=  0.00748111 RMS(Int)=  0.00001173
 Iteration  2 RMS(Cart)=  0.00002042 RMS(Int)=  0.00000244
 Iteration  3 RMS(Cart)=  0.00000000 RMS(Int)=  0.00000244
 Iteration  1 RMS(Cart)=  0.00000461 RMS(Int)=  0.00000272
 Iteration  2 RMS(Cart)=  0.00000384 RMS(Int)=  0.00000290
 Iteration  3 RMS(Cart)=  0.00000320 RMS(Int)=  0.00000329
 Iteration  4 RMS(Cart)=  0.00000266 RMS(Int)=  0.00000373
 Iteration  5 RMS(Cart)=  0.00000221 RMS(Int)=  0.00000416
 Iteration  6 RMS(Cart)=  0.00000184 RMS(Int)=  0.00000454
 Iteration  7 RMS(Cart)=  0.00000153 RMS(Int)=  0.00000487
 Iteration  8 RMS(Cart)=  0.00000128 RMS(Int)=  0.00000515
 Iteration  9 RMS(Cart)=  0.00000106 RMS(Int)=  0.00000539
 Iteration 10 RMS(Cart)=  0.00000088 RMS(Int)=  0.00000559
 Variable       Old X    -DE/DX   Delta X   Delta X   Delta X     New X
                                 (Linear)    (Quad)   (Total)
    R1        3.72346   0.00011  -0.00506   0.00452  -0.00054   3.72292
    R2        3.65936   0.00005  -0.00017   0.00039   0.00022   3.65958
    R3        3.66084   0.00006  -0.00002   0.00037   0.00035   3.66120
    R4        3.64739   0.00003   0.00103  -0.00060   0.00042   3.64781
    R5        3.07615   0.00003  -0.00039   0.00044   0.00005   3.07620
    R6        3.12349  -0.00009  -0.00076   0.00032  -0.00044   3.12305
    R7        3.14071   0.00004   0.00050  -0.00028   0.00023   3.14094
    R8        3.12673  -0.00002  -0.00006  -0.00003  -0.00008   3.12665
    R9        1.82095   0.00001  -0.00003   0.00004   0.00001   1.82096
   R10        1.82075   0.00001  -0.00003   0.00004  -0.00000   1.82075
   R11        1.82130  -0.00000  -0.00001   0.00000  -0.00001   1.82130
   R12        1.80837  -0.00000   0.00004  -0.00004   0.00000   1.80838
   R13        1.80862  -0.00000   0.00005  -0.00005   0.00001   1.80862
   R14        1.80856  -0.00001   0.00000  -0.00002  -0.00002   1.80854
    A1        1.88869   0.00002   0.00049  -0.00027   0.00022   1.88891
    A2        1.88356  -0.00008  -0.00040  -0.00007  -0.00047   1.88309
    A3        1.91671   0.00005   0.00067  -0.00029   0.00037   1.91708
    A4        1.92345  -0.00004  -0.00060   0.00030  -0.00030   1.92316
    A5        1.92198   0.00003  -0.00004   0.00016   0.00012   1.92210
    A6        1.92862   0.00003  -0.00010   0.00016   0.00005   1.92867
    A7        0.12434   0.00016   0.00001   0.00000   0.00000   0.12434
    A8        1.85693   0.00001   0.00050  -0.00033   0.00017   1.85710
    A9        1.91682  -0.00001   0.00002  -0.00001   0.00001   1.91683
   A10        2.00416  -0.00003  -0.00036   0.00002  -0.00035   2.00382
   A11        1.98545  -0.00002  -0.00035   0.00023  -0.00012   1.98533
   A12        1.86919   0.00006   0.00059  -0.00018   0.00041   1.86960
   A13        1.83463  -0.00002  -0.00041   0.00028  -0.00013   1.83450
   A14        2.02389  -0.00001  -0.00051   0.00031  -0.00020   2.02370
   A15        2.02703   0.00002   0.00023  -0.00001   0.00022   2.02726
   A16        2.01609   0.00000   0.00008  -0.00005   0.00003   2.01612
   A17        3.30891   0.00032   0.00202  -0.00023   0.00175   3.31066
   A18        3.27281  -0.00000   0.00006  -0.00040  -0.00034   3.27248
   A19        3.33038   0.00001   0.00110   0.00021   0.00131   3.33169
   A20        3.06383   0.00000   0.00123  -0.00076   0.00047   3.06430
   A21        2.93643  -0.00015   0.00242  -0.00011   0.00234   2.93876
   A22        3.02365   0.00000  -0.00049   0.00064   0.00014   3.02379
   A23        3.19647   0.00001   0.00095  -0.00013   0.00083   3.19730
   A24        3.12355   0.00003   0.00375  -0.00059   0.00316   3.12671
    D1       -2.85663   0.00003   0.00760   0.00062   0.00821  -2.84842
    D2        1.27949   0.00001   0.00677   0.00064   0.00741   1.28690
    D3       -0.86384   0.00000   0.00829   0.00023   0.00852  -0.85532
    D4        1.28480   0.00002   0.00778   0.00057   0.00835   1.29315
    D5       -0.86226   0.00001   0.00696   0.00058   0.00754  -0.85472
    D6       -3.00559  -0.00001   0.00847   0.00017   0.00865  -2.99694
    D7       -0.77683   0.00003   0.00714   0.00054   0.00768  -0.76915
    D8       -2.92389   0.00002   0.00632   0.00056   0.00687  -2.91702
    D9        1.21596   0.00000   0.00784   0.00014   0.00798   1.22394
   D10        2.89583   0.00001   0.00007  -0.00004   0.00003   2.89586
   D11       -1.27464  -0.00001   0.00022  -0.00013   0.00008  -1.27456
   D12        0.74452   0.00000  -0.00011   0.00022   0.00011   0.74464
   D13        0.61783   0.00005   0.00177  -0.00006   0.00171   0.61954
   D14       -1.46106   0.00005   0.00135   0.00021   0.00156  -1.45950
   D15        2.78274  -0.00000   0.00108   0.00013   0.00122   2.78396
   D16        1.54643  -0.00003  -0.00048   0.00029  -0.00019   1.54624
   D17       -2.67928   0.00001   0.00033  -0.00023   0.00010  -2.67919
   D18       -0.56199   0.00001  -0.00000   0.00009   0.00009  -0.56190
         Item               Value     Threshold  Converged?
 Maximum Force            0.000100     0.000450     YES
 RMS     Force            0.000031     0.000300     YES
 Maximum Displacement     0.019360     0.001800     NO 
 RMS     Displacement     0.007479     0.001200     NO 
 Predicted change in Energy=-7.384912D-07
 GradGradGradGradGradGradGradGradGradGradGradGradGradGradGradGradGradGrad

                          Input orientation:                          
 ---------------------------------------------------------------------
 Center     Atomic      Atomic             Coordinates (Angstroms)
 Number     Number       Type             X           Y           Z
 ---------------------------------------------------------------------
      1         40           0        1.376999   -0.013415   -0.008610
      2         14           0       -2.195659   -0.139374    0.020434
      3          8           0       -0.574211   -0.283616    0.022921
      4          8           0       -2.536008    1.314199    0.729329
      5          8           0       -2.878507   -1.439796    0.798407
      6          8           0       -2.888899   -0.122838   -1.481793
      7          1           0       -2.390232   -1.787794    1.552608
      8          1           0       -3.120595   -0.986394   -1.841624
      9          1           0       -3.435891    1.639024    0.614238
     10          8           0        2.148035   -1.307006   -1.226152
     11          1           0        2.651258   -1.841567   -1.839963
     12          8           0        2.047027   -0.302325    1.786159
     13          1           0        2.516899   -0.330139    2.619497
     14          8           0        1.780723    1.778964   -0.600719
     15          1           0        1.912701    2.687858   -0.869821
 ---------------------------------------------------------------------
                    Distance matrix (angstroms):
                    1          2          3          4          5
     1  Zr   0.000000
     2  Si   3.574996   0.000000
     3  O    1.970082   1.627854   0.000000
     4  O    4.197468   1.652647   2.626914   0.000000
     5  O    4.560172   1.662114   2.692195   2.776071   0.000000
     6  O    4.514436   1.654552   2.765465   2.660576   2.633211
     7  H    4.447229   2.258916   2.810770   3.212694   0.963500
     8  H    4.953280   2.245041   3.233341   3.499181   2.689599
     9  H    5.126637   2.247994   3.497916   0.963611   3.134283
    10  O    1.936564   4.667442   3.165143   5.712694   5.420571
    11  H    2.884395   5.463621   4.037474   6.593016   6.140091
    12  O    1.937422   4.598339   3.159153   4.973354   5.150764
    13  H    2.882123   5.385139   4.037243   5.639899   5.801561
    14  O    1.930339   4.458416   3.192002   4.540838   5.833215
    15  H    2.885400   5.066006   3.976352   4.922930   6.540351
                    6          7          8          9         10
     6  O    0.000000
     7  H    3.496904   0.000000
     8  H    0.963789   3.563212   0.000000
     9  H    2.792258   3.703649   3.608807   0.000000
    10  O    5.180570   5.343082   5.314138   6.576196   0.000000
    11  H    5.811683   6.076928   5.834862   7.429065   0.956951
    12  O    5.922423   4.685128   6.350833   5.933348   3.177043
    13  H    6.788683   5.229048   7.218976   6.582885   3.984889
    14  O    5.118449   5.895375   5.762809   5.358057   3.170062
    15  H    5.597311   6.664447   6.307028   5.648887   4.017622
                   11         12         13         14         15
    11  H    0.000000
    12  O    3.985364   0.000000
    13  H    4.710547   0.957081   0.000000
    14  O    3.924513   3.178030   3.919192   0.000000
    15  H    4.690665   4.001684   4.652816   0.957038   0.000000
 Stoichiometry    H6O7SiZr
 Framework group  C1[X(H6O7SiZr)]
 Deg. of freedom    39
 Full point group                 C1      NOp   1
 Largest Abelian subgroup         C1      NOp   1
 Largest concise Abelian subgroup C1      NOp   1
                         Standard orientation:                         
 ---------------------------------------------------------------------
 Center     Atomic      Atomic             Coordinates (Angstroms)
 Number     Number       Type             X           Y           Z
 ---------------------------------------------------------------------
      1         40           0        1.383892   -0.009628   -0.009957
      2         14           0       -2.191022   -0.011668    0.014127
      3          8           0       -0.575528   -0.211699    0.022652
      4          8           0       -2.481957    1.465908    0.694840
      5          8           0       -2.919463   -1.272834    0.815035
      6          8           0       -2.881175    0.000414   -1.489564
      7          1           0       -2.444554   -1.623171    1.576651
      8          1           0       -3.142053   -0.861273   -1.833553
      9          1           0       -3.369923    1.819358    0.571812
     10          8           0        2.111494   -1.351809   -1.201354
     11          1           0        2.596813   -1.914910   -1.803963
     12          8           0        2.041030   -0.287549    1.791302
     13          1           0        2.508495   -0.315821    2.625976
     14          8           0        1.850108    1.756255   -0.634866
     15          1           0        2.013774    2.654810   -0.920755
 ---------------------------------------------------------------------
 Rotational constants (GHZ):           1.6273157           0.4733177           0.4704389
 Basis read from rwf:  (5D, 7F)
 Pseudo-potential data read from rwf file.
 There are   300 symmetry adapted cartesian basis functions of A   symmetry.
 There are   266 symmetry adapted basis functions of A   symmetry.
   266 basis functions,   576 primitive gaussians,   300 cartesian basis functions
    44 alpha electrons       44 beta electrons
       nuclear repulsion energy       631.3492858551 Hartrees.
 NAtoms=   15 NActive=   15 NUniq=   15 SFac= 1.00D+00 NAtFMM=   60 NAOKFM=F Big=F
 Integral buffers will be    131072 words long.
 Raffenetti 2 integral format.
 Two-electron integral symmetry is turned on.
 Nuclear repulsion after empirical dispersion term =      631.3390858885 Hartrees.
 One-electron integrals computed using PRISM.
 PrsmSu:  requested number of processors reduced to:   4 ShMem   1 Linda.
   1 Symmetry operations used in ECPInt.
 ECPInt:  NShTT=    3321 NPrTT=   20810 LenC2=    3169 LenP2D=   14969.
 LDataN:  DoStor=T MaxTD1= 8 Len=  415
 NBasis=   266 RedAO= T EigKep=  1.02D-04  NBF=   266
 NBsUse=   266 1.00D-06 EigRej= -1.00D+00 NBFU=   266
 Defaulting to unpruned grid for atomic number  40.
 Initial guess from the checkpoint file:  "/localscratch/sarashs.35132331.0/Gau-9547.chk"
 B after Tr=    -0.000000   -0.000000    0.000000
         Rot=    0.999995   -0.003008   -0.000047    0.000030 Ang=  -0.34 deg.
 Requested convergence on RMS density matrix=1.00D-08 within 128 cycles.
 Requested convergence on MAX density matrix=1.00D-06.
 Requested convergence on             energy=1.00D-06.
 No special actions if energy rises.
 Defaulting to unpruned grid for atomic number  40.
 Defaulting to unpruned grid for atomic number  40.
 Defaulting to unpruned grid for atomic number  40.
 Defaulting to unpruned grid for atomic number  40.
 Defaulting to unpruned grid for atomic number  40.
 Defaulting to unpruned grid for atomic number  40.
 Defaulting to unpruned grid for atomic number  40.
 Defaulting to unpruned grid for atomic number  40.
 Defaulting to unpruned grid for atomic number  40.
 Defaulting to unpruned grid for atomic number  40.
 Defaulting to unpruned grid for atomic number  40.
 Defaulting to unpruned grid for atomic number  40.
 Defaulting to unpruned grid for atomic number  40.
 Defaulting to unpruned grid for atomic number  40.
 Defaulting to unpruned grid for atomic number  40.
 Defaulting to unpruned grid for atomic number  40.
 SCF Done:  E(RB3LYP) =  -867.127833813     A.U. after    8 cycles
            NFock=  8  Conv=0.53D-08     -V/T= 2.0439
 PrsmSu:  requested number of processors reduced to:   2 ShMem   1 Linda.
 PrsmSu:  requested number of processors reduced to:  10 ShMem   1 Linda.
   1 Symmetry operations used in ECPInt.
 ECPInt:  NShTT=    3321 NPrTT=   20810 LenC2=    3169 LenP2D=   14969.
 LDataN:  DoStor=T MaxTD1= 9 Len=  602
 Calling FoFJK, ICntrl=      2127 FMM=F ISym2X=0 I1Cent= 0 IOpClX= 0 NMat=1 NMatS=1 NMatT=0.
 CoulSu:  requested number of processors reduced to:  10 ShMem   1 Linda.
 Defaulting to unpruned grid for atomic number  40.
 Defaulting to unpruned grid for atomic number  40.
 Defaulting to unpruned grid for atomic number  40.
 Defaulting to unpruned grid for atomic number  40.
 Defaulting to unpruned grid for atomic number  40.
 Defaulting to unpruned grid for atomic number  40.
 Defaulting to unpruned grid for atomic number  40.
 Defaulting to unpruned grid for atomic number  40.
 Defaulting to unpruned grid for atomic number  40.
 Defaulting to unpruned grid for atomic number  40.
 Defaulting to unpruned grid for atomic number  40.
 Defaulting to unpruned grid for atomic number  40.
 Defaulting to unpruned grid for atomic number  40.
 Defaulting to unpruned grid for atomic number  40.
 Defaulting to unpruned grid for atomic number  40.
 Defaulting to unpruned grid for atomic number  40.
 ***** Axes restored to original set *****
 -------------------------------------------------------------------
 Center     Atomic                   Forces (Hartrees/Bohr)
 Number     Number              X              Y              Z
 -------------------------------------------------------------------
      1       40           0.000242036    0.000207308   -0.000087810
      2       14          -0.000060188    0.000099740   -0.000011984
      3        8          -0.000164317   -0.000302085    0.000062196
      4        8           0.000008562    0.000026553   -0.000003038
      5        8           0.000053803   -0.000011128   -0.000052758
      6        8           0.000004492   -0.000003280   -0.000000360
      7        1          -0.000025869    0.000029117    0.000035335
      8        1          -0.000002057    0.000001023    0.000002914
      9        1          -0.000006502    0.000009590    0.000011581
     10        8          -0.000006153    0.000026323    0.000002420
     11        1          -0.000006648   -0.000000244    0.000003991
     12        8          -0.000024233   -0.000023388    0.000006529
     13        1           0.000005726    0.000007062   -0.000008683
     14        8          -0.000014558   -0.000064104    0.000047165
     15        1          -0.000004094   -0.000002486   -0.000007497
 -------------------------------------------------------------------
 Cartesian Forces:  Max     0.000302085 RMS     0.000076526

 GradGradGradGradGradGradGradGradGradGradGradGradGradGradGradGradGradGrad
 Berny optimization.
 Using GEDIIS/GDIIS optimizer.
 FormGI is forming the generalized inverse of G from B-inverse, IUseBI=4.
 Internal  Forces:  Max     0.000280759 RMS     0.000058699
 Search for a local minimum.
 Step number   3 out of a maximum of   66
 All quantities printed in internal units (Hartrees-Bohrs-Radians)
 Mixed Optimization -- En-DIIS/RFO-DIIS
 Swapping is turned off.
 Update second derivatives using D2CorX and points    1    2    3
 DE= -1.50D-06 DEPred=-7.38D-07 R= 2.03D+00
 TightC=F SS=  1.41D+00  RLast= 2.44D-02 DXNew= 5.0454D-01 7.3248D-02
 Trust test= 2.03D+00 RLast= 2.44D-02 DXMaxT set to 3.00D-01
 ITU=  1  1  0
     Eigenvalues ---    0.00044   0.01439   0.01596   0.01597   0.01598
     Eigenvalues ---    0.01598   0.01625   0.02677   0.03456   0.03617
     Eigenvalues ---    0.03636   0.07311   0.08278   0.08798   0.09908
     Eigenvalues ---    0.12596   0.15991   0.16000   0.16092   0.18934
     Eigenvalues ---    0.20750   0.21474   0.21649   0.23609   0.24715
     Eigenvalues ---    0.24890   0.25001   0.33093   0.41275   0.41972
     Eigenvalues ---    0.45556   0.52104   0.54665   0.54707   0.54775
     Eigenvalues ---    0.56122   0.56129   0.562411000.000001000.00000
     Eigenvalues --- 1000.000001000.000001000.000001000.000001000.00000
     Eigenvalues --- 1000.000001000.000001000.000001000.000001000.00000
     Eigenvalues --- 1000.000001000.000001000.000001000.000001000.00000
     Eigenvalues --- 1000.00000
 En-DIIS/RFO-DIIS/Sim-DIIS IScMMF=       -3 using points:     3    2    1
 RFO step:  Lambda=-4.29165435D-06.
 DidBck=F Rises=F RFO-DIIS coefs:    3.00000   -1.47715   -0.52285
 Iteration  1 RMS(Cart)=  0.02430278 RMS(Int)=  0.00012116
 Iteration  2 RMS(Cart)=  0.00020985 RMS(Int)=  0.00001741
 Iteration  3 RMS(Cart)=  0.00000001 RMS(Int)=  0.00001741
 Iteration  1 RMS(Cart)=  0.00002074 RMS(Int)=  0.00001195
 Iteration  2 RMS(Cart)=  0.00001720 RMS(Int)=  0.00001276
 Iteration  3 RMS(Cart)=  0.00001426 RMS(Int)=  0.00001450
 Iteration  4 RMS(Cart)=  0.00001183 RMS(Int)=  0.00001645
 Iteration  5 RMS(Cart)=  0.00000981 RMS(Int)=  0.00001831
 Iteration  6 RMS(Cart)=  0.00000813 RMS(Int)=  0.00001997
 Iteration  7 RMS(Cart)=  0.00000674 RMS(Int)=  0.00002141
 Iteration  8 RMS(Cart)=  0.00000559 RMS(Int)=  0.00002264
 Iteration  9 RMS(Cart)=  0.00000464 RMS(Int)=  0.00002367
 Iteration 10 RMS(Cart)=  0.00000385 RMS(Int)=  0.00002455
 Iteration 11 RMS(Cart)=  0.00000319 RMS(Int)=  0.00002528
 Iteration 12 RMS(Cart)=  0.00000264 RMS(Int)=  0.00002589
 Iteration 13 RMS(Cart)=  0.00000219 RMS(Int)=  0.00002640
 Iteration 14 RMS(Cart)=  0.00000182 RMS(Int)=  0.00002682
 Iteration 15 RMS(Cart)=  0.00000151 RMS(Int)=  0.00002718
 Iteration 16 RMS(Cart)=  0.00000125 RMS(Int)=  0.00002747
 Iteration 17 RMS(Cart)=  0.00000104 RMS(Int)=  0.00002771
 Iteration 18 RMS(Cart)=  0.00000086 RMS(Int)=  0.00002792
 Variable       Old X    -DE/DX   Delta X   Delta X   Delta X     New X
                                 (Linear)    (Quad)   (Total)
    R1        3.72292   0.00021  -0.00292   0.00162  -0.00132   3.72160
    R2        3.65958  -0.00003   0.00038  -0.00032   0.00005   3.65963
    R3        3.66120  -0.00001   0.00070  -0.00016   0.00054   3.66173
    R4        3.64781  -0.00008   0.00122  -0.00071   0.00051   3.64832
    R5        3.07620   0.00004  -0.00004   0.00019   0.00016   3.07636
    R6        3.12305   0.00003  -0.00115   0.00022  -0.00092   3.12213
    R7        3.14094  -0.00003   0.00063  -0.00019   0.00044   3.14138
    R8        3.12665  -0.00000  -0.00019   0.00001  -0.00018   3.12647
    R9        1.82096   0.00001   0.00001   0.00002   0.00003   1.82099
   R10        1.82075   0.00001  -0.00001   0.00001  -0.00001   1.82074
   R11        1.82130  -0.00000  -0.00002  -0.00000  -0.00002   1.82128
   R12        1.80838  -0.00001   0.00002  -0.00002   0.00000   1.80838
   R13        1.80862  -0.00000   0.00003  -0.00001   0.00002   1.80864
   R14        1.80854  -0.00000  -0.00005   0.00000  -0.00004   1.80850
    A1        1.88891  -0.00001   0.00062   0.00000   0.00065   1.88956
    A2        1.88309  -0.00005  -0.00109  -0.00022  -0.00129   1.88181
    A3        1.91708   0.00002   0.00098  -0.00006   0.00088   1.91796
    A4        1.92316  -0.00002  -0.00081   0.00014  -0.00060   1.92256
    A5        1.92210   0.00003   0.00023   0.00010   0.00029   1.92239
    A6        1.92867   0.00003   0.00006   0.00003   0.00006   1.92873
    A7        0.12434   0.00015   0.00000   0.00000  -0.00000   0.12434
    A8        1.85710   0.00000   0.00052  -0.00009   0.00042   1.85753
    A9        1.91683  -0.00001   0.00003   0.00002   0.00006   1.91689
   A10        2.00382  -0.00001  -0.00082  -0.00004  -0.00086   2.00295
   A11        1.98533  -0.00000  -0.00037   0.00009  -0.00028   1.98505
   A12        1.86960   0.00004   0.00103  -0.00006   0.00096   1.87056
   A13        1.83450  -0.00001  -0.00042   0.00008  -0.00033   1.83417
   A14        2.02370   0.00002  -0.00058   0.00027  -0.00031   2.02339
   A15        2.02726   0.00000   0.00053  -0.00002   0.00051   2.02777
   A16        2.01612  -0.00000   0.00008  -0.00003   0.00005   2.01617
   A17        3.31066   0.00028   0.00424   0.00107   0.00512   3.31578
   A18        3.27248  -0.00001  -0.00065  -0.00051  -0.00116   3.27132
   A19        3.33169   0.00002   0.00301   0.00197   0.00498   3.33667
   A20        3.06430  -0.00000   0.00139  -0.00041   0.00098   3.06529
   A21        2.93876  -0.00014   0.00555   0.00153   0.00721   2.94597
   A22        3.02379   0.00001   0.00011   0.00081   0.00092   3.02471
   A23        3.19730   0.00001   0.00200   0.00058   0.00258   3.19988
   A24        3.12671   0.00002   0.00769   0.00124   0.00893   3.13564
    D1       -2.84842   0.00004   0.01918   0.00789   0.02704  -2.82138
    D2        1.28690   0.00003   0.01727   0.00730   0.02454   1.31144
    D3       -0.85532   0.00000   0.02004   0.00765   0.02767  -0.82765
    D4        1.29315   0.00002   0.01951   0.00761   0.02715   1.32029
    D5       -0.85472   0.00000   0.01760   0.00702   0.02465  -0.83007
    D6       -2.99694  -0.00003   0.02037   0.00737   0.02778  -2.96916
    D7       -0.76915   0.00003   0.01794   0.00720   0.02514  -0.74401
    D8       -2.91702   0.00001   0.01604   0.00661   0.02264  -2.89438
    D9        1.22394  -0.00001   0.01880   0.00696   0.02578   1.24972
   D10        2.89586   0.00001   0.00008   0.00009   0.00016   2.89602
   D11       -1.27456  -0.00000   0.00025   0.00011   0.00036  -1.27420
   D12        0.74464  -0.00000   0.00019   0.00022   0.00041   0.74505
   D13        0.61954   0.00003   0.00406   0.00128   0.00534   0.62487
   D14       -1.45950   0.00004   0.00362   0.00132   0.00494  -1.45456
   D15        2.78396   0.00001   0.00283   0.00129   0.00413   2.78809
   D16        1.54624  -0.00002  -0.00056   0.00015  -0.00040   1.54584
   D17       -2.67919   0.00001   0.00031  -0.00003   0.00028  -2.67891
   D18       -0.56190   0.00001   0.00018   0.00009   0.00026  -0.56164
         Item               Value     Threshold  Converged?
 Maximum Force            0.000198     0.000450     YES
 RMS     Force            0.000034     0.000300     YES
 Maximum Displacement     0.063194     0.001800     NO 
 RMS     Displacement     0.024288     0.001200     NO 
 Predicted change in Energy=-1.929364D-06
 GradGradGradGradGradGradGradGradGradGradGradGradGradGradGradGradGradGrad

                          Input orientation:                          
 ---------------------------------------------------------------------
 Center     Atomic      Atomic             Coordinates (Angstroms)
 Number     Number       Type             X           Y           Z
 ---------------------------------------------------------------------
      1         40           0        1.376591   -0.012882   -0.005315
      2         14           0       -2.195469   -0.139028    0.020608
      3          8           0       -0.573893   -0.282191    0.034220
      4          8           0       -2.541145    1.324039    0.705858
      5          8           0       -2.882096   -1.428420    0.813965
      6          8           0       -2.879151   -0.146627   -1.485960
      7          1           0       -2.400526   -1.762401    1.578733
      8          1           0       -3.107767   -1.015897   -1.833778
      9          1           0       -3.440776    1.645917    0.580798
     10          8           0        2.141372   -1.294732   -1.239155
     11          1           0        2.640031   -1.823563   -1.861596
     12          8           0        2.054226   -0.321808    1.783561
     13          1           0        2.531884   -0.356746    2.612202
     14          8           0        1.779849    1.785507   -0.580140
     15          1           0        1.910511    2.694611   -0.849091
 ---------------------------------------------------------------------
                    Distance matrix (angstroms):
                    1          2          3          4          5
[...]
 ! A20   L(1,14,15,9,-1)       174.7519         -DE/DX =    0.0                 !
 ! A21   L(1,3,2,7,-2)         168.5589         -DE/DX =   -0.0001              !
 ! A22   L(1,10,11,8,-2)       172.7138         -DE/DX =    0.0                 !
 ! A23   L(1,12,13,7,-2)       181.8976         -DE/DX =    0.0                 !
 ! A24   L(1,14,15,9,-2)       178.9561         -DE/DX =    0.0                 !
 ! D1    D(10,1,2,4)          -155.2379         -DE/DX =    0.0                 !
 ! D2    D(10,1,2,5)            81.6206         -DE/DX =    0.0                 !
 ! D3    D(10,1,2,6)           -41.0393         -DE/DX =    0.0                 !
 ! D4    D(12,1,2,4)            81.8621         -DE/DX =    0.0                 !
 ! D5    D(12,1,2,5)           -41.2794         -DE/DX =    0.0                 !
 ! D6    D(12,1,2,6)          -163.9394         -DE/DX =    0.0                 !
 ! D7    D(14,1,2,4)           -36.505          -DE/DX =    0.0                 !
 ! D8    D(14,1,2,5)          -159.6464         -DE/DX =    0.0                 !
 ! D9    D(14,1,2,6)            77.6936         -DE/DX =    0.0                 !
 ! D10   D(3,2,4,9)            166.1875         -DE/DX =    0.0                 !
 ! D11   D(5,2,4,9)            -72.7628         -DE/DX =    0.0                 !
 ! D12   D(6,2,4,9)             42.9363         -DE/DX =    0.0                 !
 ! D13   D(3,2,5,7)             36.1357         -DE/DX =    0.0                 !
 ! D14   D(4,2,5,7)            -82.9818         -DE/DX =    0.0                 !
 ! D15   D(6,2,5,7)            160.1303         -DE/DX =    0.0                 !
 ! D16   D(3,2,6,8)             88.437          -DE/DX =    0.0                 !
 ! D17   D(4,2,6,8)           -153.6575         -DE/DX =    0.0                 !
 ! D18   D(5,2,6,8)            -32.3387         -DE/DX =    0.0                 !
 --------------------------------------------------------------------------------
 GradGradGradGradGradGradGradGradGradGradGradGradGradGradGradGradGradGrad

                          Input orientation:                          
 ---------------------------------------------------------------------
 Center     Atomic      Atomic             Coordinates (Angstroms)
 Number     Number       Type             X           Y           Z
 ---------------------------------------------------------------------
      1         40           0        1.377731   -0.014512    0.000724
      2         14           0       -2.195484   -0.140770    0.011925
      3          8           0       -0.574032   -0.282202    0.043161
      4          8           0       -2.543729    1.367072    0.592135
      5          8           0       -2.885676   -1.371711    0.889850
      6          8           0       -2.872912   -0.252374   -1.493399
      7          1           0       -2.409737   -1.647573    1.680922
      8          1           0       -3.098421   -1.143697   -1.782474
      9          1           0       -3.443688    1.678194    0.444327
     10          8           0        2.135903   -1.245751   -1.286917
     11          1           0        2.617485   -1.741788   -1.948570
     12          8           0        2.061742   -0.391944    1.774601
     13          1           0        2.566942   -0.478390    2.582938
     14          8           0        1.780125    1.804042   -0.505312
     15          1           0        1.897392    2.727184   -0.729001
 ---------------------------------------------------------------------
                    Distance matrix (angstroms):
                    1          2          3          4          5
     1  Zr   0.000000
     2  Si   3.575463   0.000000
     3  O    1.970491   1.627909   0.000000
     4  O    4.199570   1.652726   2.627010   0.000000
     5  O    4.561707   1.662027   2.692139   2.776057   0.000000
     6  O    4.511868   1.654498   2.765277   2.660905   2.633050
     7  H    4.453635   2.258742   2.813594   3.208036   0.963542
     8  H    4.948817   2.245223   3.232284   3.500059   2.690459
     9  H    5.129144   2.248024   3.498429   0.963624   3.132377
    10  O    1.936181   4.654985   3.168798   5.679492   5.474525
    11  H    2.884480   5.437966   4.035241   6.538984   6.203093
    12  O    1.938289   4.614552   3.155508   5.069785   5.120514
    13  H    2.880491   5.422619   4.044091   5.786879   5.778893
    14  O    1.930060   4.455928   3.193006   4.482303   5.813912
    15  H    2.884345   5.052303   3.969959   4.828961   6.503796
                    6          7          8          9         10
     6  O    0.000000
     7  H    3.498203   0.000000
     8  H    0.963782   3.566972   0.000000
     9  H    2.794218   3.695801   3.611221   0.000000
    10  O    5.110544   5.443562   5.258720   6.532878   0.000000
    11  H    5.707013   6.201214   5.749512   7.359351   0.956953
    12  O    5.920314   4.645374   6.312305   6.030328   3.179211
    13  H    6.801442   5.191141   7.183021   6.734402   3.968679
    14  O    5.182269   5.852197   5.841277   5.310920   3.168394
    15  H    5.676079   6.595271   6.407159   5.568143   4.019002
                   11         12         13         14         15
    11  H    0.000000
    12  O    3.999117   0.000000
    13  H    4.704603   0.957135   0.000000
    14  O    3.918811   3.177998   3.919932   0.000000
    15  H    4.688027   4.002999   4.657568   0.957069   0.000000
 Stoichiometry    H6O7SiZr
 Framework group  C1[X(H6O7SiZr)]
 Deg. of freedom    39
 Full point group                 C1      NOp   1
 Largest Abelian subgroup         C1      NOp   1
 Largest concise Abelian subgroup C1      NOp   1
                         Standard orientation:                         
 ---------------------------------------------------------------------
 Center     Atomic      Atomic             Coordinates (Angstroms)
 Number     Number       Type             X           Y           Z
 ---------------------------------------------------------------------
      1         40           0        1.384118   -0.009591   -0.009811
      2         14           0       -2.191265   -0.011806    0.014001
      3          8           0       -0.575702   -0.211700    0.023272
      4          8           0       -2.484097    1.455083    0.716845
      5          8           0       -2.921275   -1.285261    0.793573
      6          8           0       -2.877553    0.023008   -1.491044
      7          1           0       -2.452543   -1.640934    1.556593
      8          1           0       -3.135355   -0.833465   -1.850026
      9          1           0       -3.373054    1.808349    0.600533
     10          8           0        2.093851   -1.157725   -1.397926
     11          1           0        2.555300   -1.614798   -2.100712
     12          8           0        2.060708   -0.553589    1.723180
     13          1           0        2.565419   -0.723011    2.518585
     14          8           0        1.848539    1.828961   -0.369214
     15          1           0        1.997466    2.762587   -0.518020
 ---------------------------------------------------------------------
 Rotational constants (GHZ):           1.6271165           0.4731912           0.4704306

 **********************************************************************

            Population analysis using the SCF Density.

 **********************************************************************

 Orbital symmetries:
       Occupied  (A) (A) (A) (A) (A) (A) (A) (A) (A) (A) (A) (A)
                 (A) (A) (A) (A) (A) (A) (A) (A) (A) (A) (A) (A)
                 (A) (A) (A) (A) (A) (A) (A) (A) (A) (A) (A) (A)
                 (A) (A) (A) (A) (A) (A) (A) (A)
       Virtual   (A) (A) (A) (A) (A) (A) (A) (A) (A) (A) (A) (A)
                 (A) (A) (A) (A) (A) (A) (A) (A) (A) (A) (A) (A)
                 (A) (A) (A) (A) (A) (A) (A) (A) (A) (A) (A) (A)
                 (A) (A) (A) (A) (A) (A) (A) (A) (A) (A) (A) (A)
                 (A) (A) (A) (A) (A) (A) (A) (A) (A) (A) (A) (A)
                 (A) (A) (A) (A) (A) (A) (A) (A) (A) (A) (A) (A)
                 (A) (A) (A) (A) (A) (A) (A) (A) (A) (A) (A) (A)
                 (A) (A) (A) (A) (A) (A) (A) (A) (A) (A) (A) (A)
                 (A) (A) (A) (A) (A) (A) (A) (A) (A) (A) (A) (A)
                 (A) (A) (A) (A) (A) (A) (A) (A) (A) (A) (A) (A)
                 (A) (A) (A) (A) (A) (A) (A) (A) (A) (A) (A) (A)
                 (A) (A) (A) (A) (A) (A) (A) (A) (A) (A) (A) (A)
                 (A) (A) (A) (A) (A) (A) (A) (A) (A) (A) (A) (A)
                 (A) (A) (A) (A) (A) (A) (A) (A) (A) (A) (A) (A)
                 (A) (A) (A) (A) (A) (A) (A) (A) (A) (A) (A) (A)
                 (A) (A) (A) (A) (A) (A) (A) (A) (A) (A) (A) (A)
                 (A) (A) (A) (A) (A) (A) (A) (A) (A) (A) (A) (A)
                 (A) (A) (A) (A) (A) (A) (A) (A) (A) (A) (A) (A)
                 (A) (A) (A) (A) (A) (A)
 The electronic state is 1-A.
 Alpha  occ. eigenvalues --  -66.19961 -19.15200 -19.15152 -19.14913 -19.14398
 Alpha  occ. eigenvalues --  -19.14308 -19.14262 -19.13228  -5.34056  -3.70023
 Alpha  occ. eigenvalues --   -3.70016  -3.69977  -2.11244  -1.27542  -1.27449
 Alpha  occ. eigenvalues --   -1.27146  -1.02790  -0.99602  -0.99424  -0.96649
 Alpha  occ. eigenvalues --   -0.95439  -0.95397  -0.94129  -0.57474  -0.52281
 Alpha  occ. eigenvalues --   -0.51579  -0.50362  -0.49702  -0.49630  -0.45693
 Alpha  occ. eigenvalues --   -0.39610  -0.37793  -0.37273  -0.36074  -0.35649
 Alpha  occ. eigenvalues --   -0.34649  -0.34246  -0.33920  -0.32949  -0.32813
 Alpha  occ. eigenvalues --   -0.32054  -0.31312  -0.31233  -0.30665
 Alpha virt. eigenvalues --   -0.02941  -0.01301  -0.00760  -0.00574   0.00257
 Alpha virt. eigenvalues --    0.00351   0.01120   0.01295   0.01720   0.02267
 Alpha virt. eigenvalues --    0.02374   0.02951   0.03226   0.03294   0.03347
 Alpha virt. eigenvalues --    0.04255   0.04499   0.04615   0.05234   0.05778
 Alpha virt. eigenvalues --    0.06794   0.09093   0.09539   0.09794   0.10100
 Alpha virt. eigenvalues --    0.10127   0.11208   0.12464   0.13529   0.13702
 Alpha virt. eigenvalues --    0.14835   0.15332   0.15919   0.16361   0.17842
 Alpha virt. eigenvalues --    0.18284   0.18420   0.18892   0.19489   0.19781
 Alpha virt. eigenvalues --    0.20455   0.20532   0.21149   0.21654   0.22563
 Alpha virt. eigenvalues --    0.22970   0.24041   0.25064   0.26085   0.26522
 Alpha virt. eigenvalues --    0.27087   0.27644   0.27893   0.28344   0.28662
 Alpha virt. eigenvalues --    0.29245   0.29517   0.29550   0.29921   0.30704
 Alpha virt. eigenvalues --    0.31207   0.32918   0.33988   0.34557   0.35096
 Alpha virt. eigenvalues --    0.35474   0.35892   0.37270   0.38023   0.39092
 Alpha virt. eigenvalues --    0.41838   0.43916   0.44622   0.46672   0.47542
 Alpha virt. eigenvalues --    0.48095   0.49578   0.50948   0.51168   0.52404
 Alpha virt. eigenvalues --    0.54829   0.57361   0.58220   0.60156   0.60641
 Alpha virt. eigenvalues --    0.61460   0.62325   0.63012   0.64563   0.64928
 Alpha virt. eigenvalues --    0.66045   0.68124   0.69584   0.72397   0.73666
 Alpha virt. eigenvalues --    0.75120   0.75993   0.77068   0.78497   0.81396
 Alpha virt. eigenvalues --    0.85318   0.86286   0.96170   0.97813   0.99068
 Alpha virt. eigenvalues --    1.01640   1.02563   1.04785   1.05530   1.06407
 Alpha virt. eigenvalues --    1.07713   1.18588   1.19841   1.20378   1.21484
 Alpha virt. eigenvalues --    1.21548   1.22770   1.23435   1.23717   1.24600
 Alpha virt. eigenvalues --    1.25677   1.26413   1.28131   1.28349   1.28888
 Alpha virt. eigenvalues --    1.29015   1.30042   1.30873   1.31574   1.32968
 Alpha virt. eigenvalues --    1.33209   1.36756   1.42636   1.43739   1.45702
 Alpha virt. eigenvalues --    1.49010   1.53140   1.56913   1.59802   1.61053
 Alpha virt. eigenvalues --    1.62915   1.63142   1.64053   1.64242   1.67820
 Alpha virt. eigenvalues --    1.69081   1.71628   1.72242   1.72599   1.72967
 Alpha virt. eigenvalues --    1.73735   1.74126   1.75180   1.76602   1.77381
 Alpha virt. eigenvalues --    1.79219   1.80627   1.83080   1.83625   1.84254
 Alpha virt. eigenvalues --    1.86116   1.87991   1.90771   1.91041   1.92446
 Alpha virt. eigenvalues --    1.93158   1.93961   1.94989   1.95754   1.97366
 Alpha virt. eigenvalues --    1.98989   1.99449   2.00307   2.01839   2.06739
 Alpha virt. eigenvalues --    2.06969   2.08190   2.10058   2.14985   2.17431
 Alpha virt. eigenvalues --    2.19640   2.20585   2.21350   2.26880   2.32000
 Alpha virt. eigenvalues --    2.37328   2.41931   2.42381   2.43558   2.45028
 Alpha virt. eigenvalues --    2.51053   2.58582   2.59316   2.62553   2.63427
 Alpha virt. eigenvalues --    2.64687   2.66688   2.68248   2.68731   2.73117
 Alpha virt. eigenvalues --    2.78191   2.80474   2.80666   2.83778   2.87698
 Alpha virt. eigenvalues --    2.90490   2.90741   2.91332   2.92554   2.93896
 Alpha virt. eigenvalues --    3.02022   3.17541   3.46952   3.48286   3.51660
 Alpha virt. eigenvalues --    3.53948   3.57276   3.89072   4.12555   4.14819
 Alpha virt. eigenvalues --    4.18210  31.06899
          Condensed to atoms (all electrons):
               1          2          3          4          5          6
     1  Zr  10.431366   0.133316  -0.029261   0.001266  -0.072330  -0.041489
     2  Si   0.133316  12.910123  -0.674599  -0.070220  -0.123800   0.007085
     3  O   -0.029261  -0.674599   8.942806   0.116322   0.272085   0.099604
     4  O    0.001266  -0.070220   0.116322   8.563965  -0.031447   0.023549
     5  O   -0.072330  -0.123800   0.272085  -0.031447   8.524058   0.027047
     6  O   -0.041489   0.007085   0.099604   0.023549   0.027047   8.521849
     7  H   -0.003284   0.028749  -0.002552  -0.006588   0.242674   0.006600
     8  H    0.001216   0.061798  -0.021594   0.006757  -0.006046   0.232426
     9  H   -0.004131   0.036743   0.010058   0.223633  -0.005714  -0.005849
    10  O    0.035063  -0.015509  -0.025048   0.000706   0.000816   0.001313
    11  H   -0.087303   0.000817  -0.001080   0.000001   0.000001   0.000010
    12  O    0.042720  -0.014746  -0.024979   0.000096   0.001997   0.000303
    13  H   -0.085729   0.000775  -0.000946  -0.000003   0.000003   0.000001
    14  O    0.029188  -0.023346  -0.025015   0.002824   0.001022  -0.000498
    15  H   -0.090329   0.000960  -0.000710   0.000081   0.000003   0.000006
               7          8          9         10         11         12
     1  Zr  -0.003284   0.001216  -0.004131   0.035063  -0.087303   0.042720
     2  Si   0.028749   0.061798   0.036743  -0.015509   0.000817  -0.014746
     3  O   -0.002552  -0.021594   0.010058  -0.025048  -0.001080  -0.024979
     4  O   -0.006588   0.006757   0.223633   0.000706   0.000001   0.000096
     5  O    0.242674  -0.006046  -0.005714   0.000816   0.000001   0.001997
     6  O    0.006600   0.232426  -0.005849   0.001313   0.000010   0.000303
     7  H    0.370702   0.000056   0.000095   0.000017   0.000000  -0.000093
     8  H    0.000056   0.358721   0.000056  -0.000002   0.000000  -0.000008
     9  H    0.000095   0.000056   0.370345  -0.000000  -0.000000  -0.000010
    10  O    0.000017  -0.000002  -0.000000   8.603177   0.327088  -0.032999
    11  H    0.000000   0.000000  -0.000000   0.327088   0.382216  -0.000737
    12  O   -0.000093  -0.000008  -0.000010  -0.032999  -0.000737   8.594608
    13  H   -0.000000  -0.000000  -0.000000  -0.000840  -0.000008   0.324930
    14  O   -0.000010   0.000000  -0.000072  -0.034381  -0.001332  -0.036881
    15  H    0.000000  -0.000000  -0.000000  -0.000665  -0.000008  -0.000880
              13         14         15
     1  Zr  -0.085729   0.029188  -0.090329
     2  Si   0.000775  -0.023346   0.000960
     3  O   -0.000946  -0.025015  -0.000710
     4  O   -0.000003   0.002824   0.000081
     5  O    0.000003   0.001022   0.000003
     6  O    0.000001  -0.000498   0.000006
     7  H   -0.000000  -0.000010   0.000000
     8  H   -0.000000   0.000000  -0.000000
     9  H   -0.000000  -0.000072  -0.000000
    10  O   -0.000840  -0.034381  -0.000665
    11  H   -0.000008  -0.001332  -0.000008
    12  O    0.324930  -0.036881  -0.000880
    13  H    0.382243  -0.001402  -0.000010
    14  O   -0.001402   8.605915   0.332145
    15  H   -0.000010   0.332145   0.378831
 Mulliken charges:
               1
     1  Zr   1.739721
     2  Si   1.741854
     3  O   -0.635089
     4  O   -0.830942
     5  O   -0.830369
     6  O   -0.871956
     7  H    0.363632
     8  H    0.366621
     9  H    0.374846
    10  O   -0.858735
    11  H    0.380335
    12  O   -0.853320
    13  H    0.380986
    14  O   -0.848159
    15  H    0.380576
 Sum of Mulliken charges =  -0.00000
 Mulliken charges with hydrogens summed into heavy atoms:
               1
     1  Zr   1.739721
     2  Si   1.741854
     3  O   -0.635089
     4  O   -0.456096
     5  O   -0.466737
     6  O   -0.505336
    10  O   -0.478401
    12  O   -0.472334
    14  O   -0.467583
 Electronic spatial extent (au):  <R**2>=           2259.5045
 Charge=             -0.0000 electrons
 Dipole moment (field-independent basis, Debye):
    X=              1.8918    Y=             -0.6665    Z=              0.2837  Tot=              2.0257
 Quadrupole moment (field-independent basis, Debye-Ang):
   XX=            -68.8733   YY=            -68.5536   ZZ=            -67.9093
   XY=             -0.3514   XZ=             -0.0641   YZ=              0.5865
 Traceless Quadrupole moment (field-independent basis, Debye-Ang):
   XX=             -0.4279   YY=             -0.1082   ZZ=              0.5361
   XY=             -0.3514   XZ=             -0.0641   YZ=              0.5865
 Octapole moment (field-independent basis, Debye-Ang**2):
  XXX=             48.6918  YYY=             17.9523  ZZZ=              8.5964  XYY=             20.4969
  XXY=              8.9615  XXZ=             -0.2063  XZZ=             30.1666  YZZ=            -23.6208
  YYZ=             -7.8427  XYZ=             -5.2090
 Hexadecapole moment (field-independent basis, Debye-Ang**3):
 XXXX=          -1900.8074 YYYY=           -354.5757 ZZZZ=           -348.2812 XXXY=           -103.1824
 XXXZ=             19.3526 YYYX=             24.8995 YYYZ=            -12.5153 ZZZX=             15.7193
 ZZZY=              5.8562 XXYY=           -341.3308 XXZZ=           -324.4161 YYZZ=           -115.2291
 XXYZ=             45.4301 YYXZ=            -21.1848 ZZXY=              2.5639
 N-N= 6.313320799751D+02 E-N=-3.300200476882D+03  KE= 8.306838618953D+02
 1\1\GINC-GRA112\FOpt\RB3LYP\Gen\H6O7Si1Zr1\SARASHS\15-Jul-2020\0\\#n B
 3LYP/Gen Pseudo=cards EmpiricalDispersion=GD3 Opt=modredundant\\Title\
 \0,1\Zr,1.3777308843,-0.0145118597,0.0007244403\Si,-2.1954842818,-0.14
 07695312,0.011924779\O,-0.5740318801,-0.2822016694,0.0431610575\O,-2.5
 437286416,1.3670715981,0.5921349048\O,-2.8856755622,-1.3717112445,0.88
 98500697\O,-2.8729122195,-0.2523735385,-1.4933986393\H,-2.4097368364,-
 1.6475730281,1.6809222762\H,-3.0984212829,-1.1436970397,-1.782474137\H
 ,-3.4436877816,1.678193621,0.4443271464\O,2.1359026029,-1.2457514337,-
 1.2869171572\H,2.617484897,-1.7417884264,-1.9485701361\O,2.0617416283,
 -0.3919439564,1.7746013941\H,2.5669416096,-0.4783897817,2.5829376783\O
 ,1.7801246249,1.8040417976,-0.5053124434\H,1.8973922394,2.7271844927,-
 0.7290012333\\Version=ES64L-G16RevB.01\State=1-A\HF=-867.1278416\RMSD=
 1.943e-09\RMSF=2.675e-05\Dipole=0.7522432,-0.2259096,0.135202\Quadrupo
 le=-0.2988371,-0.0257463,0.3245834,-0.2762353,-0.0450502,0.4668389\PG=
 C01 [X(H6O7Si1Zr1)]\\@


 A DANDELION FROM A LOVER MEANS MORE THAN AN ORCHID FROM A FRIEND.
 Job cpu time:       0 days  3 hours 58 minutes 42.9 seconds.
 Elapsed time:       0 days  0 hours 17 minutes 15.2 seconds.
 File lengths (MBytes):  RWF=     48 Int=      0 D2E=      0 Chk=      6 Scr=      1
 Normal termination of Gaussian 16 at Wed Jul 15 14:53:02 2020.
