 Entering Gaussian System, Link 0=g16
 Initial command:
 /opt/software/gaussian/g16.b01/l1.exe "/localscratch/sarashs.35132334.0/Gau-11595.inp" -scrdir="/localscratch/sarashs.35132334.0/"
 Entering Link 1 = /opt/software/gaussian/g16.b01/l1.exe PID=     11597.
  
 Copyright (c) 1988-2017, Gaussian, Inc.  All Rights Reserved.
  
 This is part of the Gaussian(R) 16 program.  It is based on
 the Gaussian(R) 09 system (copyright 2009, Gaussian, Inc.),
 the Gaussian(R) 03 system (copyright 2003, Gaussian, Inc.),
 the Gaussian(R) 98 system (copyright 1998, Gaussian, Inc.),
 the Gaussian(R) 94 system (copyright 1995, Gaussian, Inc.),
 the Gaussian 92(TM) system (copyright 1992, Gaussian, Inc.),
 the Gaussian 90(TM) system (copyright 1990, Gaussian, Inc.),
 the Gaussian 88(TM) system (copyright 1988, Gaussian, Inc.),
 the Gaussian 86(TM) system (copyright 1986, Carnegie Mellon
 University), and the Gaussian 82(TM) system (copyright 1983,
 Carnegie Mellon University). Gaussian is a federally registered
 trademark of Gaussian, Inc.
  
 This software contains proprietary and confidential information,
 including trade secrets, belonging to Gaussian, Inc.
  
 This software is provided under written license and may be
 used, copied, transmitted, or stored only in accord with that
 written license.
  
 The following legend is applicable only to US Government
 contracts under FAR:
  
                    RESTRICTED RIGHTS LEGEND
  
 Use, reproduction and disclosure by the US Government is
 subject to restrictions as set forth in subparagraphs (a)
 and (c) of the Commercial Computer Software - Restricted
 Rights clause in FAR 52.227-19.
  
 Gaussian, Inc.
 340 Quinnipiac St., Bldg. 40, Wallingford CT 06492
  
  
 ---------------------------------------------------------------
 Warning -- This program may not be used in any manner that
 competes with the business of Gaussian, Inc. or will provide
 assistance to any competitor of Gaussian, Inc.  The licensee
 of this program is prohibited from giving any competitor of
 Gaussian, Inc. access to this program.  By using this program,
 the user acknowledges that Gaussian, Inc. is engaged in the
 business of creating and licensing software in the field of
 computational chemistry and represents and warrants to the
 licensee that it is not a competitor of Gaussian, Inc. and that
 it will not use this program in any manner prohibited above.
 ---------------------------------------------------------------
  

 Cite this work as:
 Gaussian 16, Revision B.01,
 M. J. Frisch, G. W. Trucks, H. B. Schlegel, G. E. Scuseria, 
 M. A. Robb, J. R. Cheeseman, G. Scalmani, V. Barone, 
 G. A. Petersson, H. Nakatsuji, X. Li, M. Caricato, A. V. Marenich, 
 J. Bloino, B. G. Janesko, R. Gomperts, B. Mennucci, H. P. Hratchian, 
 J. V. Ortiz, A. F. Izmaylov, J. L. Sonnenberg, D. Williams-Young, 
 F. Ding, F. Lipparini, F. Egidi, J. Goings, B. Peng, A. Petrone, 
 T. Henderson, D. Ranasinghe, V. G. Zakrzewski, J. Gao, N. Rega, 
 G. Zheng, W. Liang, M. Hada, M. Ehara, K. Toyota, R. Fukuda, 
 J. Hasegawa, M. Ishida, T. Nakajima, Y. Honda, O. Kitao, H. Nakai, 
 T. Vreven, K. Throssell, J. A. Montgomery, Jr., J. E. Peralta, 
 F. Ogliaro, M. J. Bearpark, J. J. Heyd, E. N. Brothers, K. N. Kudin, 
 V. N. Staroverov, T. A. Keith, R. Kobayashi, J. Normand, 
 K. Raghavachari, A. P. Rendell, J. C. Burant, S. S. Iyengar, 
 J. Tomasi, M. Cossi, J. M. Millam, M. Klene, C. Adamo, R. Cammi, 
 J. W. Ochterski, R. L. Martin, K. Morokuma, O. Farkas, 
 J. B. Foresman, and D. J. Fox, Gaussian, Inc., Wallingford CT, 2016.
 
 ******************************************
 Gaussian 16:  ES64L-G16RevB.01 20-Dec-2017
                15-Jul-2020 
 ******************************************
 %NProcShared=16
 Will use up to   16 processors via shared memory.
 ------------------------------------------------------------------
 #n B3LYP/Gen Pseudo=cards EmpiricalDispersion=GD3 Opt=modredundant
 ------------------------------------------------------------------
 1/18=120,19=15,26=3,38=1/1,3;
 2/9=110,12=2,17=6,18=5,40=1/2;
 3/5=7,11=2,16=1,17=8,25=1,30=1,71=1,74=-5,124=31/1,2,3;
 4//1;
 5/5=2,38=5/2;
 6/7=2,8=2,9=2,10=2,28=1/1;
 7//1,2,3,16;
 1/18=20,19=15,26=3/3(2);
 2/9=110/2;
 99//99;
 2/9=110/2;
 3/5=7,6=1,11=2,16=1,17=8,25=1,30=1,71=1,74=-5,82=7,124=31/1,2,3;
 4/5=5,16=3,69=1/1;
 5/5=2,38=5/2;
 7//1,2,3,16;
 1/18=20,19=15,26=3/3(-5);
 2/9=110/2;
 6/7=2,8=2,9=2,10=2,19=2,28=1/1;
 99/9=1/99;
 -----
 Title
 -----
 Symbolic Z-matrix:
 Charge =  0 Multiplicity = 1
 Zr                    1.37839  -0.01367  -0.01029 
 Si                   -2.20263  -0.25323   0.02586 
 O                    -0.57498  -0.28442   0.01654 
 O                    -2.63739   1.16858   0.74859 
 O                    -2.78778  -1.60348   0.7979 
 O                    -2.90691  -0.27241  -1.47126 
 H                    -2.26956  -1.92346   1.5445 
 H                    -3.08121  -1.14699  -1.8368 
 H                    -3.55827   1.43179   0.64241 
 O                     2.15239  -1.31312  -1.2196 
 H                     2.65751  -1.85105  -1.82887 
 O                     2.04402  -0.29207   1.78758 
 H                     2.51011  -0.3161    2.62313 
 O                     1.78195   1.7752   -0.6111 
 H                     1.91399   2.68442  -0.87911 
 
 The following ModRedundant input section has been read:
 A       1       2       3 F                                                   
 

 GradGradGradGradGradGradGradGradGradGradGradGradGradGradGradGradGradGrad
 Berny optimization.
 Initialization pass.
                           ----------------------------
                           !    Initial Parameters    !
                           ! (Angstroms and Degrees)  !
 --------------------------                            --------------------------
 ! Name  Definition              Value          Derivative Info.                !
 --------------------------------------------------------------------------------
 ! R1    R(1,3)                  1.9722         estimate D2E/DX2                !
 ! R2    R(1,10)                 1.9365         estimate D2E/DX2                !
 ! R3    R(1,12)                 1.9372         estimate D2E/DX2                !
 ! R4    R(1,14)                 1.9297         estimate D2E/DX2                !
 ! R5    R(2,3)                  1.628          estimate D2E/DX2                !
 ! R6    R(2,4)                  1.6531         estimate D2E/DX2                !
 ! R7    R(2,5)                  1.6618         estimate D2E/DX2                !
 ! R8    R(2,6)                  1.6546         estimate D2E/DX2                !
 ! R9    R(4,9)                  0.9636         estimate D2E/DX2                !
 ! R10   R(5,7)                  0.9635         estimate D2E/DX2                !
 ! R11   R(6,8)                  0.9638         estimate D2E/DX2                !
 ! R12   R(10,11)                0.9569         estimate D2E/DX2                !
 ! R13   R(12,13)                0.9571         estimate D2E/DX2                !
 ! R14   R(14,15)                0.9571         estimate D2E/DX2                !
 ! A1    A(3,1,10)             108.1944         estimate D2E/DX2                !
 ! A2    A(3,1,12)             107.9362         estimate D2E/DX2                !
 ! A3    A(3,1,14)             109.793          estimate D2E/DX2                !
 ! A4    A(10,1,12)            110.2299         estimate D2E/DX2                !
 ! A5    A(10,1,14)            110.1226         estimate D2E/DX2                !
 ! A6    A(12,1,14)            110.5061         estimate D2E/DX2                !
 ! A7    A(1,2,3)                4.9312         Frozen                          !
 ! A8    A(3,2,4)              106.3747         estimate D2E/DX2                !
 ! A9    A(3,2,5)              109.8244         estimate D2E/DX2                !
 ! A10   A(3,2,6)              114.8446         estimate D2E/DX2                !
 ! A11   A(4,2,5)              113.7725         estimate D2E/DX2                !
 ! A12   A(4,2,6)              107.0736         estimate D2E/DX2                !
 ! A13   A(5,2,6)              105.133          estimate D2E/DX2                !
 ! A14   A(2,4,9)              115.981          estimate D2E/DX2                !
 ! A15   A(2,5,7)              116.132          estimate D2E/DX2                !
 ! A16   A(2,6,8)              115.51           estimate D2E/DX2                !
 ! A17   L(1,3,2,7,-1)         186.7157         estimate D2E/DX2                !
 ! A18   L(1,10,11,8,-1)       187.6804         estimate D2E/DX2                !
 ! A19   L(1,12,13,7,-1)       190.8663         estimate D2E/DX2                !
 ! A20   L(1,14,15,9,-1)       175.511          estimate D2E/DX2                !
 ! A21   L(1,3,2,7,-2)         172.177          estimate D2E/DX2                !
 ! A22   L(1,10,11,8,-2)       173.5553         estimate D2E/DX2                !
 ! A23   L(1,12,13,7,-2)       182.6745         estimate D2E/DX2                !
 ! A24   L(1,14,15,9,-2)       178.7431         estimate D2E/DX2                !
 ! D1    D(10,1,2,4)          -164.6941         estimate D2E/DX2                !
 ! D2    D(10,1,2,5)            72.052          estimate D2E/DX2                !
 ! D3    D(10,1,2,6)           -49.3349         estimate D2E/DX2                !
 ! D4    D(12,1,2,4)            73.7043         estimate D2E/DX2                !
 ! D5    D(12,1,2,5)           -49.5496         estimate D2E/DX2                !
 ! D6    D(12,1,2,6)          -170.9364         estimate D2E/DX2                !
 ! D7    D(14,1,2,4)           -45.1352         estimate D2E/DX2                !
 ! D8    D(14,1,2,5)          -168.3891         estimate D2E/DX2                !
 ! D9    D(14,1,2,6)            70.2241         estimate D2E/DX2                !
 ! D10   D(3,2,4,9)            165.9162         estimate D2E/DX2                !
 ! D11   D(5,2,4,9)            -73.0411         estimate D2E/DX2                !
 ! D12   D(6,2,4,9)             42.6617         estimate D2E/DX2                !
 ! D13   D(3,2,5,7)             35.3299         estimate D2E/DX2                !
 ! D14   D(4,2,5,7)            -83.7648         estimate D2E/DX2                !
 ! D15   D(6,2,5,7)            159.3972         estimate D2E/DX2                !
 ! D16   D(3,2,6,8)             88.6221         estimate D2E/DX2                !
 ! D17   D(4,2,6,8)           -153.5252         estimate D2E/DX2                !
 ! D18   D(5,2,6,8)            -32.1996         estimate D2E/DX2                !
 --------------------------------------------------------------------------------
 Trust Radius=3.00D-01 FncErr=1.00D-07 GrdErr=1.00D-06 EigMax=2.50D+02 EigMin=1.00D-04
 Number of steps in this run=     66 maximum allowed number of steps=    100.
 GradGradGradGradGradGradGradGradGradGradGradGradGradGradGradGradGradGrad

                          Input orientation:                          
 ---------------------------------------------------------------------
 Center     Atomic      Atomic             Coordinates (Angstroms)
 Number     Number       Type             X           Y           Z
 ---------------------------------------------------------------------
      1         40           0        1.378390   -0.013670   -0.010290
      2         14           0       -2.202630   -0.253230    0.025860
      3          8           0       -0.574980   -0.284420    0.016540
      4          8           0       -2.637390    1.168580    0.748590
      5          8           0       -2.787780   -1.603480    0.797900
      6          8           0       -2.906910   -0.272410   -1.471260
      7          1           0       -2.269560   -1.923460    1.544500
      8          1           0       -3.081210   -1.146990   -1.836800
      9          1           0       -3.558270    1.431790    0.642410
     10          8           0        2.152390   -1.313120   -1.219600
     11          1           0        2.657510   -1.851050   -1.828870
     12          8           0        2.044020   -0.292070    1.787580
     13          1           0        2.510110   -0.316100    2.623130
     14          8           0        1.781950    1.775200   -0.611100
     15          1           0        1.913990    2.684420   -0.879110
 ---------------------------------------------------------------------
                    Distance matrix (angstroms):
                    1          2          3          4          5
     1  Zr   0.000000
     2  Si   3.589206   0.000000
     3  O    1.972227   1.627975   0.000000
     4  O    4.254422   1.653148   2.626907   0.000000
     5  O    4.531847   1.661813   2.692012   2.776574   0.000000
     6  O    4.534884   1.654614   2.766151   2.660231   2.633444
     7  H    4.401387   2.258410   2.809398   3.213951   0.963510
     8  H    4.950615   2.245042   3.234205   3.499012   2.690005
     9  H    5.185170   2.248819   3.498158   0.963625   3.135394
    10  O    1.936512   4.651961   3.166198   5.742351   5.344146
    11  H    2.884328   5.441876   4.038423   6.617963   6.050818
    12  O    1.937242   4.597739   3.161614   5.012843   5.103484
    13  H    2.882214   5.381420   4.038947   5.675820   5.749474
    14  O    1.929738   4.516318   3.192348   4.663401   5.855185
    15  H    2.884685   5.137637   3.976326   5.065791   6.580660
                    6          7          8          9         10
     6  O    0.000000
     7  H    3.496711   0.000000
     8  H    0.963789   3.562986   0.000000
     9  H    2.792162   3.705704   3.608902   0.000000
    10  O    5.171356   5.250372   5.272486   6.604033   0.000000
    11  H    5.795063   5.971674   5.781753   7.451187   0.956935
    12  O    5.927236   4.618170   6.335219   5.972333   3.177644
    13  H    6.790438   5.156772   7.200293   6.618429   3.986049
    14  O    5.188255   5.894186   5.804469   5.496105   3.169419
    15  H    5.686349   6.678962   6.367801   5.816333   4.019091
                   11         12         13         14         15
    11  H    0.000000
    12  O    3.985662   0.000000
    13  H    4.711486   0.957059   0.000000
    14  O    3.924189   3.177413   3.919693   0.000000
    15  H    4.693118   3.998454   4.650179   0.957050   0.000000
 Stoichiometry    H6O7SiZr
 Framework group  C1[X(H6O7SiZr)]
 Deg. of freedom    39
 Full point group                 C1      NOp   1
 Largest Abelian subgroup         C1      NOp   1
 Largest concise Abelian subgroup C1      NOp   1
                         Standard orientation:                         
 ---------------------------------------------------------------------
 Center     Atomic      Atomic             Coordinates (Angstroms)
 Number     Number       Type             X           Y           Z
 ---------------------------------------------------------------------
      1         40           0        1.389472   -0.005998   -0.010289
      2         14           0       -2.199657   -0.003127    0.013097
      3          8           0       -0.577756   -0.143567    0.017434
      4          8           0       -2.540464    1.483150    0.651635
      5          8           0       -2.876905   -1.265419    0.855460
      6          8           0       -2.898358   -0.059768   -1.485688
      7          1           0       -2.383983   -1.576619    1.622619
      8          1           0       -3.129727   -0.939996   -1.802793
      9          1           0       -3.441203    1.800927    0.524114
     10          8           0        2.078685   -1.420575   -1.139020
     11          1           0        2.548670   -2.024658   -1.713409
     12          8           0        2.028561   -0.226209    1.805194
     13          1           0        2.489039   -0.234082    2.644157
     14          8           0        1.914404    1.715052   -0.707659
     15          1           0        2.108168    2.596800   -1.025340
 ---------------------------------------------------------------------
 Rotational constants (GHZ):           1.6252559           0.4707575           0.4676981
 General basis read from cards:  (5D, 7F)
 ======================================================================================================
                                       Pseudopotential Parameters
 ======================================================================================================
  Center     Atomic      Valence      Angular      Power
  Number     Number     Electrons     Momentum     of R      Exponent        Coefficient   SO-Coeffient
 ======================================================================================================
    1         40           12
                                      G and up 
                                                     2        1.0000000        0.00000000    0.00000000
                                      S - G
                                                     2        8.6365280      150.24299400    0.00000000
                                                     2        3.7176390       18.78003600    0.00000000
                                      P - G
                                                     2        7.6267280       33.19279100    0.00000000
                                                     2        7.4532070       66.38903900    0.00000000
                                                     2        3.3583890        4.62072600    0.00000000
                                                     2        3.2297380        9.26027000    0.00000000
                                      D - G
                                                     2        5.9380860       13.99338300    0.00000000
                                                     2        5.8255440       20.99588200    0.00000000
                                                     2        2.2050190        2.28516600    0.00000000
                                                     2        2.2062920        3.44126000    0.00000000
                                      F - G
                                                     2        4.8002150       -5.23932000    0.00000000
                                                     2        4.7989920       -6.98742400    0.00000000
    2         14
                                   No pseudopotential on this center.
    3          8
                                   No pseudopotential on this center.
    4          8
                                   No pseudopotential on this center.
    5          8
                                   No pseudopotential on this center.
    6          8
                                   No pseudopotential on this center.
    7          1
                                   No pseudopotential on this center.
    8          1
                                   No pseudopotential on this center.
    9          1
                                   No pseudopotential on this center.
   10          8
                                   No pseudopotential on this center.
   11          1
                                   No pseudopotential on this center.
   12          8
                                   No pseudopotential on this center.
   13          1
                                   No pseudopotential on this center.
   14          8
                                   No pseudopotential on this center.
   15          1
                                   No pseudopotential on this center.
 ======================================================================================================
 There are   300 symmetry adapted cartesian basis functions of A   symmetry.
 There are   266 symmetry adapted basis functions of A   symmetry.
   266 basis functions,   576 primitive gaussians,   300 cartesian basis functions
    44 alpha electrons       44 beta electrons
       nuclear repulsion energy       630.6674905623 Hartrees.
 NAtoms=   15 NActive=   15 NUniq=   15 SFac= 1.00D+00 NAtFMM=   60 NAOKFM=F Big=F
 Integral buffers will be    131072 words long.
 Raffenetti 2 integral format.
 Two-electron integral symmetry is turned on.
 Nuclear repulsion after empirical dispersion term =      630.6573013526 Hartrees.
 One-electron integrals computed using PRISM.
 PrsmSu:  requested number of processors reduced to:   4 ShMem   1 Linda.
   1 Symmetry operations used in ECPInt.
 ECPInt:  NShTT=    3321 NPrTT=   20810 LenC2=    3166 LenP2D=   14947.
 LDataN:  DoStor=T MaxTD1= 8 Len=  415
 NBasis=   266 RedAO= T EigKep=  1.02D-04  NBF=   266
 NBsUse=   266 1.00D-06 EigRej= -1.00D+00 NBFU=   266
 Defaulting to unpruned grid for atomic number  40.
 ExpMin= 1.01D-02 ExpMax= 1.61D+04 ExpMxC= 2.43D+03 IAcc=3 IRadAn=         5 AccDes= 0.00D+00
 Harris functional with IExCor=  402 and IRadAn=       5 diagonalized for initial guess.
 HarFok:  IExCor=  402 AccDes= 0.00D+00 IRadAn=         5 IDoV= 1 UseB2=F ITyADJ=14
 ICtDFT=  3500011 ScaDFX=  1.000000  1.000000  1.000000  1.000000
 Defaulting to unpruned grid for atomic number  40.
 FoFCou: FMM=F IPFlag=           0 FMFlag=      100000 FMFlg1=           0
         NFxFlg=           0 DoJE=T BraDBF=F KetDBF=T FulRan=T
         wScrn=  0.000000 ICntrl=       500 IOpCl=  0 I1Cent=   200000004 NGrid=           0
         NMat0=    1 NMatS0=      1 NMatT0=    0 NMatD0=    1 NMtDS0=    0 NMtDT0=    0
 Petite list used in FoFCou.
 Requested convergence on RMS density matrix=1.00D-08 within 128 cycles.
 Requested convergence on MAX density matrix=1.00D-06.
 Requested convergence on             energy=1.00D-06.
 No special actions if energy rises.
 Defaulting to unpruned grid for atomic number  40.
 Defaulting to unpruned grid for atomic number  40.
 Defaulting to unpruned grid for atomic number  40.
 Defaulting to unpruned grid for atomic number  40.
 Defaulting to unpruned grid for atomic number  40.
 Defaulting to unpruned grid for atomic number  40.
 Defaulting to unpruned grid for atomic number  40.
 Defaulting to unpruned grid for atomic number  40.
 Defaulting to unpruned grid for atomic number  40.
 Defaulting to unpruned grid for atomic number  40.
 Defaulting to unpruned grid for atomic number  40.
 Defaulting to unpruned grid for atomic number  40.
 Defaulting to unpruned grid for atomic number  40.
 Defaulting to unpruned grid for atomic number  40.
 Defaulting to unpruned grid for atomic number  40.
 Defaulting to unpruned grid for atomic number  40.
 SCF Done:  E(RB3LYP) =  -867.127776671     A.U. after   12 cycles
            NFock= 12  Conv=0.99D-08     -V/T= 2.0439

 **********************************************************************

            Population analysis using the SCF Density.

 **********************************************************************

 Orbital symmetries:
       Occupied  (A) (A) (A) (A) (A) (A) (A) (A) (A) (A) (A) (A)
                 (A) (A) (A) (A) (A) (A) (A) (A) (A) (A) (A) (A)
                 (A) (A) (A) (A) (A) (A) (A) (A) (A) (A) (A) (A)
                 (A) (A) (A) (A) (A) (A) (A) (A)
       Virtual   (A) (A) (A) (A) (A) (A) (A) (A) (A) (A) (A) (A)
                 (A) (A) (A) (A) (A) (A) (A) (A) (A) (A) (A) (A)
                 (A) (A) (A) (A) (A) (A) (A) (A) (A) (A) (A) (A)
                 (A) (A) (A) (A) (A) (A) (A) (A) (A) (A) (A) (A)
                 (A) (A) (A) (A) (A) (A) (A) (A) (A) (A) (A) (A)
                 (A) (A) (A) (A) (A) (A) (A) (A) (A) (A) (A) (A)
                 (A) (A) (A) (A) (A) (A) (A) (A) (A) (A) (A) (A)
                 (A) (A) (A) (A) (A) (A) (A) (A) (A) (A) (A) (A)
                 (A) (A) (A) (A) (A) (A) (A) (A) (A) (A) (A) (A)
                 (A) (A) (A) (A) (A) (A) (A) (A) (A) (A) (A) (A)
                 (A) (A) (A) (A) (A) (A) (A) (A) (A) (A) (A) (A)
                 (A) (A) (A) (A) (A) (A) (A) (A) (A) (A) (A) (A)
                 (A) (A) (A) (A) (A) (A) (A) (A) (A) (A) (A) (A)
                 (A) (A) (A) (A) (A) (A) (A) (A) (A) (A) (A) (A)
                 (A) (A) (A) (A) (A) (A) (A) (A) (A) (A) (A) (A)
                 (A) (A) (A) (A) (A) (A) (A) (A) (A) (A) (A) (A)
                 (A) (A) (A) (A) (A) (A) (A) (A) (A) (A) (A) (A)
                 (A) (A) (A) (A) (A) (A) (A) (A) (A) (A) (A) (A)
                 (A) (A) (A) (A) (A) (A)
 The electronic state is 1-A.
 Alpha  occ. eigenvalues --  -66.19946 -19.15201 -19.15129 -19.14848 -19.14441
 Alpha  occ. eigenvalues --  -19.14381 -19.14296 -19.13206  -5.34037  -3.70004
 Alpha  occ. eigenvalues --   -3.69998  -3.69957  -2.11297  -1.27598  -1.27501
 Alpha  occ. eigenvalues --   -1.27183  -1.02762  -0.99578  -0.99387  -0.96695
 Alpha  occ. eigenvalues --   -0.95494  -0.95441  -0.94104  -0.57453  -0.52252
 Alpha  occ. eigenvalues --   -0.51543  -0.50425  -0.49740  -0.49700  -0.45685
 Alpha  occ. eigenvalues --   -0.39571  -0.37838  -0.37216  -0.36081  -0.35670
 Alpha  occ. eigenvalues --   -0.34677  -0.34235  -0.33852  -0.33017  -0.32820
 Alpha  occ. eigenvalues --   -0.32079  -0.31361  -0.31217  -0.30644
 Alpha virt. eigenvalues --   -0.02969  -0.01297  -0.00778  -0.00583   0.00232
 Alpha virt. eigenvalues --    0.00323   0.01015   0.01273   0.01695   0.02270
 Alpha virt. eigenvalues --    0.02462   0.02913   0.03156   0.03258   0.03305
 Alpha virt. eigenvalues --    0.04215   0.04495   0.04597   0.05217   0.05786
 Alpha virt. eigenvalues --    0.06861   0.09081   0.09504   0.09778   0.10094
 Alpha virt. eigenvalues --    0.10110   0.11145   0.12515   0.13602   0.13707
 Alpha virt. eigenvalues --    0.14746   0.15391   0.15934   0.16182   0.17967
 Alpha virt. eigenvalues --    0.18366   0.18477   0.18836   0.19503   0.19729
 Alpha virt. eigenvalues --    0.20102   0.20456   0.21281   0.21698   0.22358
 Alpha virt. eigenvalues --    0.22977   0.24247   0.25012   0.26177   0.26272
 Alpha virt. eigenvalues --    0.26867   0.27365   0.27841   0.28337   0.28694
 Alpha virt. eigenvalues --    0.29298   0.29448   0.29583   0.29893   0.30485
 Alpha virt. eigenvalues --    0.31183   0.32719   0.34250   0.34643   0.35282
 Alpha virt. eigenvalues --    0.35477   0.35673   0.37494   0.37920   0.38834
 Alpha virt. eigenvalues --    0.41383   0.44057   0.44439   0.46589   0.47468
 Alpha virt. eigenvalues --    0.47970   0.49594   0.50973   0.51291   0.52500
 Alpha virt. eigenvalues --    0.54753   0.57603   0.58240   0.60514   0.60595
 Alpha virt. eigenvalues --    0.61281   0.62386   0.63219   0.64260   0.64834
 Alpha virt. eigenvalues --    0.65641   0.68037   0.68889   0.72347   0.73512
 Alpha virt. eigenvalues --    0.75160   0.76201   0.77161   0.78476   0.82216
 Alpha virt. eigenvalues --    0.85451   0.86317   0.96149   0.97770   0.98958
 Alpha virt. eigenvalues --    1.01645   1.02598   1.04798   1.05604   1.06517
 Alpha virt. eigenvalues --    1.07550   1.18569   1.20052   1.20718   1.21482
 Alpha virt. eigenvalues --    1.21680   1.22566   1.23277   1.23701   1.24439
 Alpha virt. eigenvalues --    1.25548   1.26110   1.27682   1.28047   1.28617
 Alpha virt. eigenvalues --    1.28914   1.30147   1.31208   1.31540   1.32638
 Alpha virt. eigenvalues --    1.33021   1.36757   1.42651   1.43629   1.45720
 Alpha virt. eigenvalues --    1.49095   1.53392   1.57370   1.59774   1.61130
 Alpha virt. eigenvalues --    1.62960   1.63551   1.63752   1.64030   1.67913
 Alpha virt. eigenvalues --    1.69089   1.71742   1.72166   1.72582   1.72973
 Alpha virt. eigenvalues --    1.73683   1.74672   1.74817   1.76481   1.77421
 Alpha virt. eigenvalues --    1.79070   1.80520   1.82915   1.83717   1.84476
 Alpha virt. eigenvalues --    1.85786   1.88124   1.90896   1.91294   1.92745
 Alpha virt. eigenvalues --    1.93113   1.93977   1.94660   1.95846   1.96628
 Alpha virt. eigenvalues --    1.98695   1.99115   2.00445   2.01655   2.06292
 Alpha virt. eigenvalues --    2.06922   2.08248   2.10136   2.14881   2.18116
 Alpha virt. eigenvalues --    2.19279   2.20342   2.21933   2.27166   2.32048
 Alpha virt. eigenvalues --    2.36049   2.41869   2.42303   2.43262   2.44984
 Alpha virt. eigenvalues --    2.51362   2.58419   2.58621   2.62652   2.63503
 Alpha virt. eigenvalues --    2.64507   2.66625   2.68134   2.68904   2.73116
 Alpha virt. eigenvalues --    2.78345   2.80248   2.80761   2.83727   2.87608
 Alpha virt. eigenvalues --    2.90419   2.90975   2.91373   2.92614   2.93739
 Alpha virt. eigenvalues --    3.02578   3.18884   3.47351   3.48284   3.51621
 Alpha virt. eigenvalues --    3.54169   3.56690   3.92323   4.13291   4.14724
 Alpha virt. eigenvalues --    4.18452  31.11607
          Condensed to atoms (all electrons):
               1          2          3          4          5          6
     1  Zr  10.425648   0.130949  -0.028297  -0.004947  -0.068746  -0.042896
     2  Si   0.130949  12.875364  -0.668784  -0.069180  -0.111020   0.003246
     3  O   -0.028297  -0.668784   8.955612   0.124485   0.264797   0.104904
     4  O   -0.004947  -0.069180   0.124485   8.567574  -0.028502   0.020967
     5  O   -0.068746  -0.111020   0.264797  -0.028502   8.514172   0.029398
     6  O   -0.042896   0.003246   0.104904   0.020967   0.029398   8.520648
     7  H   -0.002675   0.026286  -0.002266  -0.006523   0.244269   0.006387
     8  H    0.001321   0.062249  -0.021895   0.006757  -0.006139   0.232369
     9  H   -0.003421   0.037387   0.009326   0.222395  -0.005704  -0.005808
    10  O    0.036360  -0.013530  -0.025141   0.000616   0.000872   0.001056
    11  H   -0.087041   0.000837  -0.001046   0.000002   0.000002   0.000007
    12  O    0.040798  -0.013658  -0.027166   0.000165   0.001741   0.000323
    13  H   -0.086564   0.000827  -0.000888   0.000002   0.000003   0.000001
    14  O    0.029196  -0.020853  -0.028523   0.001806   0.000917  -0.000136
    15  H   -0.090567   0.001014  -0.000806   0.000044   0.000003   0.000004
               7          8          9         10         11         12
     1  Zr  -0.002675   0.001321  -0.003421   0.036360  -0.087041   0.040798
     2  Si   0.026286   0.062249   0.037387  -0.013530   0.000837  -0.013658
     3  O   -0.002266  -0.021895   0.009326  -0.025141  -0.001046  -0.027166
     4  O   -0.006523   0.006757   0.222395   0.000616   0.000002   0.000165
     5  O    0.244269  -0.006139  -0.005704   0.000872   0.000002   0.001741
     6  O    0.006387   0.232369  -0.005808   0.001056   0.000007   0.000323
     7  H    0.370489   0.000060   0.000092   0.000026  -0.000000  -0.000093
     8  H    0.000060   0.358926   0.000055   0.000004   0.000000  -0.000008
     9  H    0.000092   0.000055   0.371530  -0.000000  -0.000000  -0.000013
    10  O    0.000026   0.000004  -0.000000   8.600360   0.326189  -0.032970
    11  H   -0.000000   0.000000  -0.000000   0.326189   0.382365  -0.000807
    12  O   -0.000093  -0.000008  -0.000013  -0.032970  -0.000807   8.596039
    13  H   -0.000000  -0.000000  -0.000000  -0.000786  -0.000008   0.325579
    14  O   -0.000007   0.000003  -0.000048  -0.033739  -0.001283  -0.036391
    15  H    0.000000  -0.000000  -0.000000  -0.000681  -0.000008  -0.000933
              13         14         15
     1  Zr  -0.086564   0.029196  -0.090567
     2  Si   0.000827  -0.020853   0.001014
     3  O   -0.000888  -0.028523  -0.000806
     4  O    0.000002   0.001806   0.000044
     5  O    0.000003   0.000917   0.000003
     6  O    0.000001  -0.000136   0.000004
     7  H   -0.000000  -0.000007   0.000000
     8  H   -0.000000   0.000003  -0.000000
     9  H   -0.000000  -0.000048  -0.000000
    10  O   -0.000786  -0.033739  -0.000681
    11  H   -0.000008  -0.001283  -0.000008
    12  O    0.325579  -0.036391  -0.000933
    13  H    0.382112  -0.001428  -0.000011
    14  O   -0.001428   8.608465   0.331493
    15  H   -0.000011   0.331493   0.379386
 Mulliken charges:
               1
     1  Zr   1.750882
     2  Si   1.758865
     3  O   -0.654313
     4  O   -0.835660
     5  O   -0.836062
     6  O   -0.870471
     7  H    0.363955
     8  H    0.366298
     9  H    0.374210
    10  O   -0.858636
    11  H    0.380789
    12  O   -0.852608
    13  H    0.381161
    14  O   -0.849472
    15  H    0.381061
 Sum of Mulliken charges =   0.00000
 Mulliken charges with hydrogens summed into heavy atoms:
               1
     1  Zr   1.750882
     2  Si   1.758865
     3  O   -0.654313
     4  O   -0.461450
     5  O   -0.472107
     6  O   -0.504173
    10  O   -0.477847
    12  O   -0.471446
    14  O   -0.468410
 Electronic spatial extent (au):  <R**2>=           2268.9584
 Charge=              0.0000 electrons
 Dipole moment (field-independent basis, Debye):
    X=              2.0052    Y=             -0.7641    Z=              0.3374  Tot=              2.1722
 Quadrupole moment (field-independent basis, Debye-Ang):
   XX=            -68.9122   YY=            -68.5114   ZZ=            -68.0603
   XY=             -0.0664   XZ=             -0.0188   YZ=              0.6855
 Traceless Quadrupole moment (field-independent basis, Debye-Ang):
   XX=             -0.4175   YY=             -0.0168   ZZ=              0.4344
   XY=             -0.0664   XZ=             -0.0188   YZ=              0.6855
 Octapole moment (field-independent basis, Debye-Ang**2):
  XXX=             46.9975  YYY=             10.1496  ZZZ=             16.3366  XYY=             23.0452
  XXY=             10.2227  XXZ=             -0.7918  XZZ=             30.3427  YZZ=            -17.3481
  YYZ=            -15.1876  XYZ=             -4.3286
 Hexadecapole moment (field-independent basis, Debye-Ang**3):
 XXXX=          -1903.2286 YYYY=           -365.1162 ZZZZ=           -350.2518 XXXY=           -100.0078
 XXXZ=             18.8234 YYYX=             10.2439 YYYZ=            -13.0099 ZZZX=             29.1023
 ZZZY=              5.0803 XXYY=           -333.0592 XXZZ=           -340.0544 YYZZ=           -109.5811
 XXYZ=             50.4217 YYXZ=            -32.7822 ZZXY=             19.4238
 N-N= 6.306573013526D+02 E-N=-3.298841366996D+03  KE= 8.306798969612D+02
 PrsmSu:  requested number of processors reduced to:   2 ShMem   1 Linda.
 PrsmSu:  requested number of processors reduced to:  10 ShMem   1 Linda.
   1 Symmetry operations used in ECPInt.
 ECPInt:  NShTT=    3321 NPrTT=   20810 LenC2=    3166 LenP2D=   14947.
 LDataN:  DoStor=T MaxTD1= 9 Len=  602
 Calling FoFJK, ICntrl=      2127 FMM=F ISym2X=0 I1Cent= 0 IOpClX= 0 NMat=1 NMatS=1 NMatT=0.
 CoulSu:  requested number of processors reduced to:  10 ShMem   1 Linda.
 Defaulting to unpruned grid for atomic number  40.
 Defaulting to unpruned grid for atomic number  40.
 Defaulting to unpruned grid for atomic number  40.
 Defaulting to unpruned grid for atomic number  40.
 Defaulting to unpruned grid for atomic number  40.
 Defaulting to unpruned grid for atomic number  40.
 Defaulting to unpruned grid for atomic number  40.
 Defaulting to unpruned grid for atomic number  40.
 Defaulting to unpruned grid for atomic number  40.
 Defaulting to unpruned grid for atomic number  40.
 Defaulting to unpruned grid for atomic number  40.
 Defaulting to unpruned grid for atomic number  40.
 Defaulting to unpruned grid for atomic number  40.
 Defaulting to unpruned grid for atomic number  40.
 Defaulting to unpruned grid for atomic number  40.
 Defaulting to unpruned grid for atomic number  40.
 ***** Axes restored to original set *****
 -------------------------------------------------------------------
 Center     Atomic                   Forces (Hartrees/Bohr)
 Number     Number              X              Y              Z
 -------------------------------------------------------------------
      1       40          -0.001355980   -0.000094490   -0.000155948
      2       14           0.000176860    0.001122703   -0.000024060
      3        8           0.000979937   -0.000505165    0.000120789
      4        8           0.000096026   -0.000342768   -0.000073273
      5        8          -0.000019169   -0.000274598    0.000064222
      6        8           0.000039068   -0.000122318    0.000024172
      7        1          -0.000091336    0.000040819    0.000061489
      8        1          -0.000003003    0.000001803   -0.000010460
      9        1           0.000023543   -0.000051021   -0.000029871
     10        8           0.000023547    0.000043120    0.000101395
     11        1           0.000016267   -0.000008655   -0.000024856
     12        8          -0.000034760   -0.000094292   -0.000036883
     13        1           0.000025680    0.000016214    0.000028019
     14        8           0.000124848    0.000279071   -0.000002488
     15        1          -0.000001529   -0.000010421   -0.000042248
 -------------------------------------------------------------------
 Cartesian Forces:  Max     0.001355980 RMS     0.000325355

 GradGradGradGradGradGradGradGradGradGradGradGradGradGradGradGradGradGrad
 Berny optimization.
 FormGI is forming the generalized inverse of G from B-inverse, IUseBI=4.
 Internal  Forces:  Max     0.001174250 RMS     0.000220508
 Search for a local minimum.
 Step number   1 out of a maximum of   66
 All quantities printed in internal units (Hartrees-Bohrs-Radians)
 Mixed Optimization -- En-DIIS/RFO-DIIS
 Second derivative matrix not updated -- first step.
 ITU=  0
     Eigenvalues ---    0.00230   0.01596   0.01596   0.01597   0.01597
     Eigenvalues ---    0.01598   0.01598   0.03235   0.03523   0.03617
     Eigenvalues ---    0.03636   0.07208   0.08219   0.08957   0.09982
     Eigenvalues ---    0.12561   0.16000   0.16000   0.16000   0.19140
     Eigenvalues ---    0.19484   0.20649   0.21482   0.21527   0.21945
     Eigenvalues ---    0.25000   0.25000   0.25000   0.40908   0.41958
     Eigenvalues ---    0.42176   0.46107   0.54666   0.54701   0.54719
     Eigenvalues ---    0.56111   0.56113   0.561381000.000001000.00000
     Eigenvalues --- 1000.000001000.000001000.000001000.000001000.00000
     Eigenvalues --- 1000.000001000.000001000.000001000.000001000.00000
     Eigenvalues --- 1000.000001000.000001000.000001000.000001000.00000
     Eigenvalues --- 1000.00000
 RFO step:  Lambda=-1.25820677D-05 EMin= 2.30000000D-03
 Linear search not attempted -- first point.
 Iteration  1 RMS(Cart)=  0.00868284 RMS(Int)=  0.00001606
 Iteration  2 RMS(Cart)=  0.00002960 RMS(Int)=  0.00000290
 Iteration  3 RMS(Cart)=  0.00000000 RMS(Int)=  0.00000290
 Iteration  1 RMS(Cart)=  0.00000393 RMS(Int)=  0.00000222
 Iteration  2 RMS(Cart)=  0.00000324 RMS(Int)=  0.00000237
 Iteration  3 RMS(Cart)=  0.00000267 RMS(Int)=  0.00000270
 Iteration  4 RMS(Cart)=  0.00000221 RMS(Int)=  0.00000307
 Iteration  5 RMS(Cart)=  0.00000182 RMS(Int)=  0.00000341
 Iteration  6 RMS(Cart)=  0.00000150 RMS(Int)=  0.00000371
 Iteration  7 RMS(Cart)=  0.00000124 RMS(Int)=  0.00000398
 Iteration  8 RMS(Cart)=  0.00000102 RMS(Int)=  0.00000420
 Iteration  9 RMS(Cart)=  0.00000084 RMS(Int)=  0.00000439
 Variable       Old X    -DE/DX   Delta X   Delta X   Delta X     New X
                                 (Linear)    (Quad)   (Total)
    R1        3.72697  -0.00117   0.00000  -0.00611  -0.00611   3.72086
    R2        3.65948  -0.00006   0.00000  -0.00026  -0.00026   3.65922
    R3        3.66086   0.00000   0.00000   0.00000   0.00000   3.66086
    R4        3.64668   0.00029   0.00000   0.00132   0.00132   3.64799
    R5        3.07643  -0.00022   0.00000  -0.00041  -0.00041   3.07602
    R6        3.12400  -0.00042   0.00000  -0.00099  -0.00099   3.12301
    R7        3.14037   0.00029   0.00000   0.00070   0.00070   3.14107
    R8        3.12677  -0.00003   0.00000  -0.00006  -0.00006   3.12670
    R9        1.82099  -0.00003   0.00000  -0.00006  -0.00006   1.82093
   R10        1.82077  -0.00001   0.00000  -0.00003  -0.00003   1.82074
   R11        1.82130   0.00000   0.00000   0.00001   0.00001   1.82130
   R12        1.80835   0.00003   0.00000   0.00005   0.00005   1.80840
   R13        1.80858   0.00004   0.00000   0.00007   0.00007   1.80864
   R14        1.80856   0.00000   0.00000   0.00000   0.00000   1.80857
    A1        1.88835   0.00013   0.00000   0.00056   0.00056   1.88891
    A2        1.88384  -0.00014   0.00000  -0.00062  -0.00062   1.88322
    A3        1.91625   0.00022   0.00000   0.00093   0.00092   1.91717
    A4        1.92387  -0.00019   0.00000  -0.00085  -0.00084   1.92303
    A5        1.92200  -0.00003   0.00000   0.00003   0.00002   1.92203
    A6        1.92870   0.00001   0.00000  -0.00003  -0.00004   1.92866
    A7        0.08606   0.00035   0.00000   0.00000   0.00000   0.08607
    A8        1.85659   0.00008   0.00000   0.00060   0.00060   1.85719
    A9        1.91680   0.00003   0.00000   0.00009   0.00009   1.91689
   A10        2.00442  -0.00009   0.00000  -0.00050  -0.00050   2.00391
   A11        1.98570  -0.00011   0.00000  -0.00045  -0.00045   1.98526
   A12        1.86879   0.00017   0.00000   0.00078   0.00078   1.86957
   A13        1.83492  -0.00008   0.00000  -0.00055  -0.00055   1.83437
   A14        2.02425  -0.00010   0.00000  -0.00063  -0.00063   2.02362
   A15        2.02689   0.00006   0.00000   0.00041   0.00041   2.02730
   A16        2.01603   0.00002   0.00000   0.00012   0.00012   2.01615
   A17        3.25880   0.00070   0.00000   0.00239   0.00236   3.26116
   A18        3.27564   0.00000   0.00000   0.00003   0.00003   3.27567
   A19        3.33125   0.00003   0.00000   0.00168   0.00168   3.33293
   A20        3.06324   0.00001   0.00000   0.00081   0.00081   3.06405
   A21        3.00506  -0.00030   0.00000   0.00311   0.00313   3.00819
   A22        3.02911  -0.00002   0.00000  -0.00101  -0.00101   3.02810
   A23        3.18827   0.00002   0.00000   0.00120   0.00120   3.18947
   A24        3.11966   0.00007   0.00000   0.00465   0.00465   3.12431
    D1       -2.87445   0.00001   0.00000   0.00896   0.00895  -2.86550
    D2        1.25754   0.00000   0.00000   0.00795   0.00795   1.26549
    D3       -0.86106   0.00000   0.00000   0.00977   0.00977  -0.85128
    D4        1.28638   0.00003   0.00000   0.00954   0.00954   1.29592
    D5       -0.86480   0.00002   0.00000   0.00853   0.00854  -0.85627
    D6       -2.98340   0.00002   0.00000   0.01036   0.01036  -2.97304
    D7       -0.78776   0.00004   0.00000   0.00866   0.00866  -0.77910
    D8       -2.93894   0.00003   0.00000   0.00765   0.00765  -2.93129
    D9        1.22564   0.00003   0.00000   0.00948   0.00948   1.23512
   D10        2.89578  -0.00000   0.00000  -0.00011  -0.00011   2.89567
   D11       -1.27481   0.00002   0.00000   0.00014   0.00014  -1.27467
   D12        0.74459  -0.00003   0.00000  -0.00028  -0.00028   0.74431
   D13        0.61662   0.00013   0.00000   0.00228   0.00228   0.61890
   D14       -1.46197   0.00008   0.00000   0.00175   0.00175  -1.46022
   D15        2.78201  -0.00002   0.00000   0.00138   0.00139   2.78339
   D16        1.54675  -0.00008   0.00000  -0.00055  -0.00055   1.54620
   D17       -2.67952   0.00008   0.00000   0.00044   0.00044  -2.67908
   D18       -0.56199  -0.00000   0.00000   0.00002   0.00002  -0.56197
         Item               Value     Threshold  Converged?
 Maximum Force            0.001191     0.000450     NO 
 RMS     Force            0.000192     0.000300     YES
 Maximum Displacement     0.021879     0.001800     NO 
 RMS     Displacement     0.008681     0.001200     NO 
 Predicted change in Energy=-6.269138D-06
 GradGradGradGradGradGradGradGradGradGradGradGradGradGradGradGradGradGrad

                          Input orientation:                          
 ---------------------------------------------------------------------
 Center     Atomic      Atomic             Coordinates (Angstroms)
 Number     Number       Type             X           Y           Z
 ---------------------------------------------------------------------
      1         40           0        1.376347   -0.013564   -0.009356
      2         14           0       -2.201256   -0.252530    0.026335
      3          8           0       -0.573802   -0.283649    0.020922
      4          8           0       -2.638580    1.171949    0.741023
      5          8           0       -2.788381   -1.599338    0.803663
      6          8           0       -2.901336   -0.280449   -1.472580
      7          1           0       -2.273242   -1.914858    1.554263
      8          1           0       -3.074164   -1.157106   -1.833827
      9          1           0       -3.559387    1.433643    0.630832
     10          8           0        2.148417   -1.309063   -1.223909
     11          1           0        2.652573   -1.844155   -1.836511
     12          8           0        2.045024   -0.299465    1.786205
     13          1           0        2.513868   -0.325971    2.620178
     14          8           0        1.780705    1.777858   -0.604235
     15          1           0        1.912845    2.686688   -0.873522
 ---------------------------------------------------------------------
                    Distance matrix (angstroms):
                    1          2          3          4          5
     1  Zr   0.000000
     2  Si   3.585752   0.000000
     3  O    1.968996   1.627760   0.000000
     4  O    4.253017   1.652626   2.626903   0.000000
     5  O    4.529972   1.662182   2.692227   2.776040   0.000000
     6  O    4.528888   1.654581   2.765497   2.660552   2.633156
     7  H    4.402196   2.259000   2.810707   3.212974   0.963495
     8  H    4.944030   2.245090   3.233393   3.499155   2.689535
     9  H    5.183216   2.247915   3.497828   0.963593   3.134214
    10  O    1.936375   4.647475   3.164104   5.738616   5.344837
    11  H    2.884148   5.437197   4.036673   6.613385   6.052639
    12  O    1.937242   4.596764   3.158279   5.019324   5.100674
    13  H    2.882013   5.381989   4.036289   5.685306   5.747612
    14  O    1.930435   4.513990   3.191290   4.659069   5.853561
    15  H    2.885476   5.135618   3.975719   5.061290   6.579095
                    6          7          8          9         10
     6  O    0.000000
     7  H    3.496795   0.000000
     8  H    0.963793   3.562979   0.000000
     9  H    2.792040   3.703965   3.608597   0.000000
    10  O    5.159447   5.257024   5.260270   6.598601   0.000000
    11  H    5.781309   5.980469   5.767803   7.444474   0.956963
    12  O    5.923388   4.616353   6.328212   5.978962   3.176597
    13  H    6.788017   5.155304   7.194098   6.628587   3.984599
    14  O    5.187693   5.893195   5.804796   5.491854   3.169904
    15  H    5.686749   6.677701   6.369238   5.811930   4.017996
                   11         12         13         14         15
    11  H    0.000000
    12  O    3.984878   0.000000
    13  H    4.710222   0.957093   0.000000
    14  O    3.923982   3.177945   3.919242   0.000000
    15  H    4.690744   4.001090   4.652233   0.957052   0.000000
 Stoichiometry    H6O7SiZr
 Framework group  C1[X(H6O7SiZr)]
 Deg. of freedom    39
 Full point group                 C1      NOp   1
 Largest Abelian subgroup         C1      NOp   1
 Largest concise Abelian subgroup C1      NOp   1
                         Standard orientation:                         
 ---------------------------------------------------------------------
 Center     Atomic      Atomic             Coordinates (Angstroms)
 Number     Number       Type             X           Y           Z
 ---------------------------------------------------------------------
      1         40           0        1.387919   -0.005884   -0.010127
      2         14           0       -2.197756   -0.002566    0.013300
      3          8           0       -0.576073   -0.142935    0.019870
      4          8           0       -2.540685    1.479531    0.659027
      5          8           0       -2.876775   -1.269616    0.847784
      6          8           0       -2.893052   -0.052731   -1.487261
      7          1           0       -2.386570   -1.583934    1.615394
      8          1           0       -3.123235   -0.931585   -1.809017
      9          1           0       -3.441425    1.796995    0.530978
     10          8           0        2.075201   -1.404971   -1.158929
     11          1           0        2.544291   -2.000396   -1.743053
     12          8           0        2.029769   -0.252681    1.800958
     13          1           0        2.492942   -0.271988    2.638290
     14          8           0        1.913875    1.724989   -0.683942
     15          1           0        2.107761    2.609497   -0.993783
 ---------------------------------------------------------------------
 Rotational constants (GHZ):           1.6252366           0.4713530           0.4682813
 Basis read from rwf:  (5D, 7F)
 Pseudo-potential data read from rwf file.
 There are   300 symmetry adapted cartesian basis functions of A   symmetry.
 There are   266 symmetry adapted basis functions of A   symmetry.
   266 basis functions,   576 primitive gaussians,   300 cartesian basis functions
    44 alpha electrons       44 beta electrons
       nuclear repulsion energy       630.8428682895 Hartrees.
 NAtoms=   15 NActive=   15 NUniq=   15 SFac= 1.00D+00 NAtFMM=   60 NAOKFM=F Big=F
 Integral buffers will be    131072 words long.
 Raffenetti 2 integral format.
 Two-electron integral symmetry is turned on.
 Nuclear repulsion after empirical dispersion term =      630.8326760348 Hartrees.
 One-electron integrals computed using PRISM.
 PrsmSu:  requested number of processors reduced to:   4 ShMem   1 Linda.
   1 Symmetry operations used in ECPInt.
 ECPInt:  NShTT=    3321 NPrTT=   20810 LenC2=    3166 LenP2D=   14950.
 LDataN:  DoStor=T MaxTD1= 8 Len=  415
 NBasis=   266 RedAO= T EigKep=  1.01D-04  NBF=   266
 NBsUse=   266 1.00D-06 EigRej= -1.00D+00 NBFU=   266
 Defaulting to unpruned grid for atomic number  40.
 Initial guess from the checkpoint file:  "/localscratch/sarashs.35132334.0/Gau-11597.chk"
 B after Tr=    -0.000000   -0.000000   -0.000000
         Rot=    0.999987   -0.005186    0.000013    0.000047 Ang=  -0.59 deg.
 ExpMin= 1.01D-02 ExpMax= 1.61D+04 ExpMxC= 2.43D+03 IAcc=3 IRadAn=         5 AccDes= 0.00D+00
 Harris functional with IExCor=  402 and IRadAn=       5 diagonalized for initial guess.
 HarFok:  IExCor=  402 AccDes= 0.00D+00 IRadAn=         5 IDoV= 1 UseB2=F ITyADJ=14
 ICtDFT=  3500011 ScaDFX=  1.000000  1.000000  1.000000  1.000000
 Defaulting to unpruned grid for atomic number  40.
 FoFCou: FMM=F IPFlag=           0 FMFlag=      100000 FMFlg1=           0
         NFxFlg=           0 DoJE=T BraDBF=F KetDBF=T FulRan=T
         wScrn=  0.000000 ICntrl=       500 IOpCl=  0 I1Cent=   200000004 NGrid=           0
         NMat0=    1 NMatS0=      1 NMatT0=    0 NMatD0=    1 NMtDS0=    0 NMtDT0=    0
 Petite list used in FoFCou.
 Requested convergence on RMS density matrix=1.00D-08 within 128 cycles.
 Requested convergence on MAX density matrix=1.00D-06.
 Requested convergence on             energy=1.00D-06.
 No special actions if energy rises.
 Defaulting to unpruned grid for atomic number  40.
 Defaulting to unpruned grid for atomic number  40.
 Defaulting to unpruned grid for atomic number  40.
 Defaulting to unpruned grid for atomic number  40.
 Defaulting to unpruned grid for atomic number  40.
 Defaulting to unpruned grid for atomic number  40.
 Defaulting to unpruned grid for atomic number  40.
 Defaulting to unpruned grid for atomic number  40.
 Defaulting to unpruned grid for atomic number  40.
 Defaulting to unpruned grid for atomic number  40.
 Defaulting to unpruned grid for atomic number  40.
 Defaulting to unpruned grid for atomic number  40.
 Defaulting to unpruned grid for atomic number  40.
 Defaulting to unpruned grid for atomic number  40.
 Defaulting to unpruned grid for atomic number  40.
 Defaulting to unpruned grid for atomic number  40.
 SCF Done:  E(RB3LYP) =  -867.127784230     A.U. after    8 cycles
            NFock=  8  Conv=0.91D-08     -V/T= 2.0439
 PrsmSu:  requested number of processors reduced to:   2 ShMem   1 Linda.
 PrsmSu:  requested number of processors reduced to:  10 ShMem   1 Linda.
   1 Symmetry operations used in ECPInt.
 ECPInt:  NShTT=    3321 NPrTT=   20810 LenC2=    3166 LenP2D=   14950.
 LDataN:  DoStor=T MaxTD1= 9 Len=  602
 Calling FoFJK, ICntrl=      2127 FMM=F ISym2X=0 I1Cent= 0 IOpClX= 0 NMat=1 NMatS=1 NMatT=0.
 CoulSu:  requested number of processors reduced to:  10 ShMem   1 Linda.
 Defaulting to unpruned grid for atomic number  40.
 Defaulting to unpruned grid for atomic number  40.
 Defaulting to unpruned grid for atomic number  40.
 Defaulting to unpruned grid for atomic number  40.
 Defaulting to unpruned grid for atomic number  40.
 Defaulting to unpruned grid for atomic number  40.
 Defaulting to unpruned grid for atomic number  40.
 Defaulting to unpruned grid for atomic number  40.
 Defaulting to unpruned grid for atomic number  40.
 Defaulting to unpruned grid for atomic number  40.
 Defaulting to unpruned grid for atomic number  40.
 Defaulting to unpruned grid for atomic number  40.
 Defaulting to unpruned grid for atomic number  40.
 Defaulting to unpruned grid for atomic number  40.
 Defaulting to unpruned grid for atomic number  40.
 Defaulting to unpruned grid for atomic number  40.
 ***** Axes restored to original set *****
 -------------------------------------------------------------------
 Center     Atomic                   Forces (Hartrees/Bohr)
 Number     Number              X              Y              Z
 -------------------------------------------------------------------
      1       40           0.000066785    0.000358663   -0.000192955
      2       14          -0.000193870    0.000578007   -0.000031612
      3        8          -0.000080061   -0.000604134    0.000123863
      4        8           0.000090072   -0.000143807   -0.000033877
      5        8           0.000078042   -0.000108842   -0.000040543
      6        8           0.000050095   -0.000055269    0.000024491
      7        1          -0.000073506    0.000042312    0.000075866
      8        1          -0.000003094    0.000004840    0.000002716
      9        1          -0.000015450   -0.000001052   -0.000007552
     10        8           0.000053535   -0.000059340   -0.000039271
     11        1          -0.000006719    0.000000726   -0.000000088
     12        8          -0.000004404   -0.000092457    0.000115061
     13        1           0.000007721    0.000014435   -0.000009304
     14        8           0.000041269    0.000090527    0.000036728
     15        1          -0.000010416   -0.000024609   -0.000023523
 -------------------------------------------------------------------
 Cartesian Forces:  Max     0.000604134 RMS     0.000152123

 GradGradGradGradGradGradGradGradGradGradGradGradGradGradGradGradGradGrad
 Berny optimization.
 Using GEDIIS/GDIIS optimizer.
 FormGI is forming the generalized inverse of G from B-inverse, IUseBI=4.
 Internal  Forces:  Max     0.000608524 RMS     0.000115812
 Search for a local minimum.
 Step number   2 out of a maximum of   66
 All quantities printed in internal units (Hartrees-Bohrs-Radians)
 Mixed Optimization -- En-DIIS/RFO-DIIS
 Swapping is turned off.
 Update second derivatives using D2CorX and points    1    2
 DE= -7.56D-06 DEPred=-6.27D-06 R= 1.21D+00
 TightC=F SS=  1.41D+00  RLast= 2.89D-02 DXNew= 5.0454D-01 8.6564D-02
 Trust test= 1.21D+00 RLast= 2.89D-02 DXMaxT set to 3.00D-01
 ITU=  1  0
     Eigenvalues ---    0.00170   0.01514   0.01596   0.01596   0.01597
     Eigenvalues ---    0.01598   0.01600   0.02949   0.03463   0.03617
     Eigenvalues ---    0.03636   0.07173   0.08204   0.08765   0.09865
     Eigenvalues ---    0.12583   0.15929   0.16000   0.16006   0.18830
     Eigenvalues ---    0.20639   0.21039   0.21509   0.21802   0.24470
     Eigenvalues ---    0.24837   0.25000   0.27826   0.40585   0.41642
     Eigenvalues ---    0.41991   0.46911   0.54667   0.54714   0.54731
     Eigenvalues ---    0.56110   0.56124   0.561501000.000001000.00000
     Eigenvalues --- 1000.000001000.000001000.000001000.000001000.00000
     Eigenvalues --- 1000.000001000.000001000.000001000.000001000.00000
     Eigenvalues --- 1000.000001000.000001000.000001000.000001000.00000
     Eigenvalues --- 1000.00000
 En-DIIS/RFO-DIIS/Sim-DIIS IScMMF=       -3 using points:     2    1
 RFO step:  Lambda=-4.84164040D-06.
 DidBck=F Rises=F RFO-DIIS coefs:    2.48123   -1.48123
 Iteration  1 RMS(Cart)=  0.01329584 RMS(Int)=  0.00003745
 Iteration  2 RMS(Cart)=  0.00006492 RMS(Int)=  0.00000924
 Iteration  3 RMS(Cart)=  0.00000000 RMS(Int)=  0.00000924
 Iteration  1 RMS(Cart)=  0.00001419 RMS(Int)=  0.00000789
 Iteration  2 RMS(Cart)=  0.00001167 RMS(Int)=  0.00000845
 Iteration  3 RMS(Cart)=  0.00000960 RMS(Int)=  0.00000962
 Iteration  4 RMS(Cart)=  0.00000790 RMS(Int)=  0.00001091
 Iteration  5 RMS(Cart)=  0.00000650 RMS(Int)=  0.00001213
 Iteration  6 RMS(Cart)=  0.00000534 RMS(Int)=  0.00001321
 Iteration  7 RMS(Cart)=  0.00000439 RMS(Int)=  0.00001414
 Iteration  8 RMS(Cart)=  0.00000361 RMS(Int)=  0.00001492
 Iteration  9 RMS(Cart)=  0.00000297 RMS(Int)=  0.00001558
 Iteration 10 RMS(Cart)=  0.00000245 RMS(Int)=  0.00001613
 Iteration 11 RMS(Cart)=  0.00000201 RMS(Int)=  0.00001658
 Iteration 12 RMS(Cart)=  0.00000165 RMS(Int)=  0.00001696
 Iteration 13 RMS(Cart)=  0.00000136 RMS(Int)=  0.00001727
 Iteration 14 RMS(Cart)=  0.00000112 RMS(Int)=  0.00001753
 Iteration 15 RMS(Cart)=  0.00000092 RMS(Int)=  0.00001774
 Variable       Old X    -DE/DX   Delta X   Delta X   Delta X     New X
                                 (Linear)    (Quad)   (Total)
    R1        3.72086   0.00018  -0.00904   0.00804  -0.00101   3.71985
    R2        3.65922   0.00008  -0.00038   0.00077   0.00039   3.65960
    R3        3.66086   0.00011   0.00000   0.00064   0.00064   3.66150
    R4        3.64799   0.00006   0.00195  -0.00114   0.00081   3.64880
    R5        3.07602   0.00007  -0.00060   0.00073   0.00013   3.07615
    R6        3.12301  -0.00016  -0.00146   0.00064  -0.00082   3.12219
    R7        3.14107   0.00007   0.00103  -0.00059   0.00044   3.14151
    R8        3.12670  -0.00004  -0.00009  -0.00006  -0.00015   3.12655
    R9        1.82093   0.00002  -0.00009   0.00010   0.00001   1.82094
   R10        1.82074   0.00001  -0.00004   0.00004   0.00000   1.82074
   R11        1.82130  -0.00000   0.00001  -0.00002  -0.00001   1.82130
   R12        1.80840  -0.00000   0.00008  -0.00007   0.00001   1.80841
   R13        1.80864  -0.00000   0.00010  -0.00008   0.00001   1.80866
   R14        1.80857  -0.00002   0.00000  -0.00004  -0.00004   1.80853
    A1        1.88891   0.00002   0.00083  -0.00049   0.00036   1.88927
    A2        1.88322  -0.00015  -0.00092  -0.00006  -0.00096   1.88226
    A3        1.91717   0.00010   0.00136  -0.00056   0.00079   1.91796
    A4        1.92303  -0.00008  -0.00125   0.00058  -0.00064   1.92239
    A5        1.92203   0.00004   0.00003   0.00023   0.00025   1.92228
    A6        1.92866   0.00006  -0.00005   0.00026   0.00019   1.92885
    A7        0.08607   0.00032   0.00000   0.00000   0.00000   0.08607
    A8        1.85719   0.00002   0.00089  -0.00057   0.00031   1.85750
    A9        1.91689  -0.00000   0.00014  -0.00009   0.00005   1.91694
   A10        2.00391  -0.00006  -0.00075   0.00009  -0.00066   2.00325
   A11        1.98526  -0.00004  -0.00067   0.00043  -0.00023   1.98502
   A12        1.86957   0.00013   0.00116  -0.00036   0.00079   1.87036
   A13        1.83437  -0.00004  -0.00082   0.00052  -0.00028   1.83409
   A14        2.02362  -0.00002  -0.00093   0.00059  -0.00033   2.02329
   A15        2.02730   0.00004   0.00061  -0.00010   0.00050   2.02780
   A16        2.01615   0.00000   0.00018  -0.00012   0.00005   2.01620
   A17        3.26116   0.00061   0.00350  -0.00056   0.00281   3.26397
   A18        3.27567  -0.00001   0.00005  -0.00073  -0.00069   3.27499
   A19        3.33293   0.00003   0.00249   0.00032   0.00282   3.33575
   A20        3.06405  -0.00000   0.00119  -0.00117   0.00002   3.06407
   A21        3.00819  -0.00027   0.00464  -0.00056   0.00416   3.01235
   A22        3.02810   0.00000  -0.00149   0.00118  -0.00031   3.02779
   A23        3.18947   0.00001   0.00177  -0.00028   0.00149   3.19096
   A24        3.12431   0.00005   0.00689  -0.00116   0.00573   3.13004
    D1       -2.86550   0.00005   0.01326   0.00117   0.01441  -2.85110
    D2        1.26549   0.00002   0.01177   0.00129   0.01305   1.27853
    D3       -0.85128  -0.00001   0.01448   0.00046   0.01494  -0.83635
    D4        1.29592   0.00004   0.01413   0.00093   0.01508   1.31100
    D5       -0.85627   0.00002   0.01264   0.00106   0.01371  -0.84255
    D6       -2.97304  -0.00001   0.01535   0.00023   0.01560  -2.95743
    D7       -0.77910   0.00005   0.01282   0.00100   0.01381  -0.76529
    D8       -2.93129   0.00003   0.01134   0.00112   0.01245  -2.91884
    D9        1.23512  -0.00000   0.01404   0.00029   0.01434   1.24946
   D10        2.89567   0.00001  -0.00016  -0.00001  -0.00018   2.89549
   D11       -1.27467  -0.00001   0.00021  -0.00025  -0.00004  -1.27471
   D12        0.74431  -0.00000  -0.00042   0.00040  -0.00001   0.74429
   D13        0.61890   0.00010   0.00338  -0.00013   0.00324   0.62215
   D14       -1.46022   0.00010   0.00259   0.00037   0.00296  -1.45726
   D15        2.78339  -0.00001   0.00205   0.00025   0.00231   2.78570
   D16        1.54620  -0.00005  -0.00081   0.00051  -0.00030   1.54590
   D17       -2.67908   0.00003   0.00065  -0.00040   0.00024  -2.67884
   D18       -0.56197   0.00002   0.00003   0.00020   0.00022  -0.56175
         Item               Value     Threshold  Converged?
 Maximum Force            0.000169     0.000450     YES
 RMS     Force            0.000056     0.000300     YES
 Maximum Displacement     0.033919     0.001800     NO 
 RMS     Displacement     0.013288     0.001200     NO 
 Predicted change in Energy=-2.372794D-06
 GradGradGradGradGradGradGradGradGradGradGradGradGradGradGradGradGradGrad

                          Input orientation:                          
 ---------------------------------------------------------------------
 Center     Atomic      Atomic             Coordinates (Angstroms)
 Number     Number       Type             X           Y           Z
 ---------------------------------------------------------------------
      1         40           0        1.376008   -0.013079   -0.007976
      2         14           0       -2.201127   -0.252154    0.026643
      3          8           0       -0.573586   -0.282740    0.026659
      4          8           0       -2.641581    1.177235    0.728489
      5          8           0       -2.790453   -1.593149    0.812808
      6          8           0       -2.895414   -0.293325   -1.474572
      7          1           0       -2.279463   -1.901277    1.569292
      8          1           0       -3.066336   -1.173122   -1.829016
      9          1           0       -3.562198    1.437286    0.612883
     10          8           0        2.144887   -1.302636   -1.231172
     11          1           0        2.646633   -1.834259   -1.848760
     12          8           0        2.048506   -0.310411    1.784666
     13          1           0        2.521420   -0.340879    2.616209
     14          8           0        1.780639    1.781840   -0.593446
     15          1           0        1.911696    2.690658   -0.863228
 ---------------------------------------------------------------------
                    Distance matrix (angstroms):
                    1          2          3          4          5
     1  Zr   0.000000
     2  Si   3.585283   0.000000
     3  O    1.968460   1.627828   0.000000
     4  O    4.254439   1.652193   2.626917   0.000000
     5  O    4.530971   1.662415   2.692526   2.775662   0.000000
     6  O    4.524874   1.654502   2.764903   2.660913   2.632995
     7  H    4.406306   2.259537   2.812364   3.211746   0.963495
     8  H    4.939262   2.245048   3.232663   3.499347   2.689194
     9  H    5.184102   2.247310   3.497706   0.963601   3.133544
    10  O    1.936579   4.644723   3.164242   5.735879   5.349750
    11  H    2.884383   5.433320   4.036610   6.608821   6.058381
    12  O    1.937582   4.599284   3.157011   5.032446   5.099553
    13  H    2.881973   5.386666   4.035865   5.703046   5.747732
    14  O    1.930864   4.513989   3.192083   4.655006   5.853458
    15  H    2.885933   5.134913   3.976131   5.055328   6.578016
                    6          7          8          9         10
     6  O    0.000000
     7  H    3.497144   0.000000
     8  H    0.963788   3.563408   0.000000
     9  H    2.792326   3.702179   3.608737   0.000000
    10  O    5.146123   5.270279   5.247003   6.593825   0.000000
    11  H    5.764441   5.996165   5.751131   7.437222   0.956967
    12  O    5.921593   4.616118   6.321754   5.992288   3.176331
    13  H    6.788139   5.155516   7.188579   6.647224   3.983603
    14  O    5.191161   5.892979   5.809612   5.488156   3.170704
    15  H    5.690887   6.675989   6.375135   5.806321   4.016983
                   11         12         13         14         15
    11  H    0.000000
    12  O    3.985179   0.000000
    13  H    4.709757   0.957100   0.000000
    14  O    3.924529   3.178786   3.918746   0.000000
    15  H    4.688952   4.004556   4.654939   0.957031   0.000000
 Stoichiometry    H6O7SiZr
 Framework group  C1[X(H6O7SiZr)]
 Deg. of freedom    39
 Full point group                 C1      NOp   1
 Largest Abelian subgroup         C1      NOp   1
 Largest concise Abelian subgroup C1      NOp   1
                         Standard orientation:                         
 ---------------------------------------------------------------------
 Center     Atomic      Atomic             Coordinates (Angstroms)
 Number     Number       Type             X           Y           Z
 ---------------------------------------------------------------------
      1         40           0        1.387639   -0.005653   -0.009927
      2         14           0       -2.197565   -0.002077    0.013653
      3          8           0       -0.575802   -0.142127    0.023416
      4          8           0       -2.542734    1.476914    0.664181
      5          8           0       -2.878399   -1.272649    0.841745
      6          8           0       -2.888467   -0.047808   -1.488990
      7          1           0       -2.391667   -1.588385    1.610982
      8          1           0       -3.117265   -0.925726   -1.814258
      9          1           0       -3.443356    1.794232    0.534885
     10          8           0        2.071505   -1.385172   -1.184488
     11          1           0        2.538128   -1.970200   -1.780970
     12          8           0        2.033079   -0.286010    1.795352
     13          1           0        2.500323   -0.319745    2.629969
     14          8           0        1.914207    1.736853   -0.653847
     15          1           0        2.107092    2.625014   -0.953635
 ---------------------------------------------------------------------
 Rotational constants (GHZ):           1.6248508           0.4714273           0.4683605
 Basis read from rwf:  (5D, 7F)
 Pseudo-potential data read from rwf file.
 There are   300 symmetry adapted cartesian basis functions of A   symmetry.
 There are   266 symmetry adapted basis functions of A   symmetry.
   266 basis functions,   576 primitive gaussians,   300 cartesian basis functions
    44 alpha electrons       44 beta electrons
       nuclear repulsion energy       630.8473080300 Hartrees.
 NAtoms=   15 NActive=   15 NUniq=   15 SFac= 1.00D+00 NAtFMM=   60 NAOKFM=F Big=F
 Integral buffers will be    131072 words long.
 Raffenetti 2 integral format.
 Two-electron integral symmetry is turned on.
 Nuclear repulsion after empirical dispersion term =      630.8371164625 Hartrees.
 One-electron integrals computed using PRISM.
 PrsmSu:  requested number of processors reduced to:   4 ShMem   1 Linda.
   1 Symmetry operations used in ECPInt.
 ECPInt:  NShTT=    3321 NPrTT=   20810 LenC2=    3166 LenP2D=   14951.
 LDataN:  DoStor=T MaxTD1= 8 Len=  415
 NBasis=   266 RedAO= T EigKep=  1.01D-04  NBF=   266
 NBsUse=   266 1.00D-06 EigRej= -1.00D+00 NBFU=   266
 Defaulting to unpruned grid for atomic number  40.
 Initial guess from the checkpoint file:  "/localscratch/sarashs.35132334.0/Gau-11597.chk"
 B after Tr=    -0.000000    0.000000   -0.000000
         Rot=    0.999982   -0.005991   -0.000027    0.000065 Ang=  -0.69 deg.
 ExpMin= 1.01D-02 ExpMax= 1.61D+04 ExpMxC= 2.43D+03 IAcc=3 IRadAn=         5 AccDes= 0.00D+00
 Harris functional with IExCor=  402 and IRadAn=       5 diagonalized for initial guess.
 HarFok:  IExCor=  402 AccDes= 0.00D+00 IRadAn=         5 IDoV= 1 UseB2=F ITyADJ=14
 ICtDFT=  3500011 ScaDFX=  1.000000  1.000000  1.000000  1.000000
 Defaulting to unpruned grid for atomic number  40.
 FoFCou: FMM=F IPFlag=           0 FMFlag=      100000 FMFlg1=           0
         NFxFlg=           0 DoJE=T BraDBF=F KetDBF=T FulRan=T
         wScrn=  0.000000 ICntrl=       500 IOpCl=  0 I1Cent=   200000004 NGrid=           0
         NMat0=    1 NMatS0=      1 NMatT0=    0 NMatD0=    1 NMtDS0=    0 NMtDT0=    0
 Petite list used in FoFCou.
 Requested convergence on RMS density matrix=1.00D-08 within 128 cycles.
 Requested convergence on MAX density matrix=1.00D-06.
 Requested convergence on             energy=1.00D-06.
 No special actions if energy rises.
 Defaulting to unpruned grid for atomic number  40.
 Defaulting to unpruned grid for atomic number  40.
 Defaulting to unpruned grid for atomic number  40.
 Defaulting to unpruned grid for atomic number  40.
 Defaulting to unpruned grid for atomic number  40.
 Defaulting to unpruned grid for atomic number  40.
 Defaulting to unpruned grid for atomic number  40.
 Defaulting to unpruned grid for atomic number  40.
 Defaulting to unpruned grid for atomic number  40.
 Defaulting to unpruned grid for atomic number  40.
 Defaulting to unpruned grid for atomic number  40.
 Defaulting to unpruned grid for atomic number  40.
 Defaulting to unpruned grid for atomic number  40.
 Defaulting to unpruned grid for atomic number  40.
 Defaulting to unpruned grid for atomic number  40.
 Defaulting to unpruned grid for atomic number  40.
 SCF Done:  E(RB3LYP) =  -867.127788398     A.U. after    8 cycles
            NFock=  8  Conv=0.84D-08     -V/T= 2.0439
 PrsmSu:  requested number of processors reduced to:   2 ShMem   1 Linda.
 PrsmSu:  requested number of processors reduced to:  10 ShMem   1 Linda.
   1 Symmetry operations used in ECPInt.
 ECPInt:  NShTT=    3321 NPrTT=   20810 LenC2=    3166 LenP2D=   14951.
 LDataN:  DoStor=T MaxTD1= 9 Len=  602
 Calling FoFJK, ICntrl=      2127 FMM=F ISym2X=0 I1Cent= 0 IOpClX= 0 NMat=1 NMatS=1 NMatT=0.
 CoulSu:  requested number of processors reduced to:  10 ShMem   1 Linda.
 Defaulting to unpruned grid for atomic number  40.
 Defaulting to unpruned grid for atomic number  40.
 Defaulting to unpruned grid for atomic number  40.
 Defaulting to unpruned grid for atomic number  40.
 Defaulting to unpruned grid for atomic number  40.
 Defaulting to unpruned grid for atomic number  40.
 Defaulting to unpruned grid for atomic number  40.
 Defaulting to unpruned grid for atomic number  40.
 Defaulting to unpruned grid for atomic number  40.
 Defaulting to unpruned grid for atomic number  40.
 Defaulting to unpruned grid for atomic number  40.
 Defaulting to unpruned grid for atomic number  40.
 Defaulting to unpruned grid for atomic number  40.
 Defaulting to unpruned grid for atomic number  40.
 Defaulting to unpruned grid for atomic number  40.
 Defaulting to unpruned grid for atomic number  40.
 ***** Axes restored to original set *****
 -------------------------------------------------------------------
 Center     Atomic                   Forces (Hartrees/Bohr)
 Number     Number              X              Y              Z
 -------------------------------------------------------------------
      1       40           0.000415137    0.000388637   -0.000154466
      2       14          -0.000121846    0.000161221   -0.000024846
      3        8          -0.000261691   -0.000562200    0.000114167
      4        8           0.000010897    0.000050593    0.000004204
      5        8           0.000109520   -0.000007395   -0.000100894
      6        8           0.000008019   -0.000006430   -0.000001417
      7        1          -0.000054922    0.000057453    0.000064175
      8        1          -0.000005079    0.000003292    0.000008300
      9        1          -0.000014069    0.000023232    0.000013269
     10        8          -0.000009973    0.000041459    0.000005641
     11        1          -0.000011328    0.000000359    0.000007816
     12        8          -0.000045587   -0.000043547    0.000011823
     13        1           0.000011345    0.000014342   -0.000013962
     14        8          -0.000022128   -0.000117679    0.000080128
     15        1          -0.000008295   -0.000003337   -0.000013941
 -------------------------------------------------------------------
 Cartesian Forces:  Max     0.000562200 RMS     0.000137476

 GradGradGradGradGradGradGradGradGradGradGradGradGradGradGradGradGradGrad
 Berny optimization.
 Using GEDIIS/GDIIS optimizer.
 FormGI is forming the generalized inverse of G from B-inverse, IUseBI=4.
 Internal  Forces:  Max     0.000531900 RMS     0.000109425
 Search for a local minimum.
 Step number   3 out of a maximum of   66
 All quantities printed in internal units (Hartrees-Bohrs-Radians)
 Mixed Optimization -- En-DIIS/RFO-DIIS
 Swapping is turned off.
 Update second derivatives using D2CorX and points    1    2    3
 DE= -4.17D-06 DEPred=-2.37D-06 R= 1.76D+00
 TightC=F SS=  1.41D+00  RLast= 4.37D-02 DXNew= 5.0454D-01 1.3117D-01
 Trust test= 1.76D+00 RLast= 4.37D-02 DXMaxT set to 3.00D-01
 ITU=  1  1  0
     Eigenvalues ---    0.00047   0.01433   0.01596   0.01597   0.01598
     Eigenvalues ---    0.01598   0.01622   0.02710   0.03431   0.03617
     Eigenvalues ---    0.03637   0.07361   0.08201   0.08930   0.09832
     Eigenvalues ---    0.12578   0.15986   0.16000   0.16100   0.19062
     Eigenvalues ---    0.20636   0.21472   0.21638   0.23495   0.24690
     Eigenvalues ---    0.24881   0.25003   0.32815   0.41328   0.41972
     Eigenvalues ---    0.45782   0.51982   0.54667   0.54722   0.54821
     Eigenvalues ---    0.56120   0.56128   0.562471000.000001000.00000
     Eigenvalues --- 1000.000001000.000001000.000001000.000001000.00000
     Eigenvalues --- 1000.000001000.000001000.000001000.000001000.00000
     Eigenvalues --- 1000.000001000.000001000.000001000.000001000.00000
     Eigenvalues --- 1000.00000
 En-DIIS/RFO-DIIS/Sim-DIIS IScMMF=       -3 using points:     3    2    1
 RFO step:  Lambda=-1.17609730D-05.
 DidBck=F Rises=F RFO-DIIS coefs:    3.00000   -1.37729   -0.62271
 Iteration  1 RMS(Cart)=  0.03653217 RMS(Int)=  0.00027505
 Iteration  2 RMS(Cart)=  0.00047415 RMS(Int)=  0.00004731
 Iteration  3 RMS(Cart)=  0.00000007 RMS(Int)=  0.00004731
 Iteration  1 RMS(Cart)=  0.00006440 RMS(Int)=  0.00003460
 Iteration  2 RMS(Cart)=  0.00005261 RMS(Int)=  0.00003709
 Iteration  3 RMS(Cart)=  0.00004298 RMS(Int)=  0.00004228
 Iteration  4 RMS(Cart)=  0.00003512 RMS(Int)=  0.00004797
 Iteration  5 RMS(Cart)=  0.00002869 RMS(Int)=  0.00005329
 Iteration  6 RMS(Cart)=  0.00002344 RMS(Int)=  0.00005795
 Iteration  7 RMS(Cart)=  0.00001915 RMS(Int)=  0.00006192
 Iteration  8 RMS(Cart)=  0.00001565 RMS(Int)=  0.00006526
 Iteration  9 RMS(Cart)=  0.00001278 RMS(Int)=  0.00006804
 Iteration 10 RMS(Cart)=  0.00001044 RMS(Int)=  0.00007034
 Iteration 11 RMS(Cart)=  0.00000853 RMS(Int)=  0.00007224
 Iteration 12 RMS(Cart)=  0.00000697 RMS(Int)=  0.00007380
 Iteration 13 RMS(Cart)=  0.00000570 RMS(Int)=  0.00007508
 Iteration 14 RMS(Cart)=  0.00000465 RMS(Int)=  0.00007613
 Iteration 15 RMS(Cart)=  0.00000380 RMS(Int)=  0.00007700
 Iteration 16 RMS(Cart)=  0.00000311 RMS(Int)=  0.00007770
 Iteration 17 RMS(Cart)=  0.00000254 RMS(Int)=  0.00007828
 Iteration 18 RMS(Cart)=  0.00000207 RMS(Int)=  0.00007875
 Iteration 19 RMS(Cart)=  0.00000169 RMS(Int)=  0.00007914
 Iteration 20 RMS(Cart)=  0.00000138 RMS(Int)=  0.00007946
 Iteration 21 RMS(Cart)=  0.00000113 RMS(Int)=  0.00007972
 Iteration 22 RMS(Cart)=  0.00000092 RMS(Int)=  0.00007993
 Variable       Old X    -DE/DX   Delta X   Delta X   Delta X     New X
                                 (Linear)    (Quad)   (Total)
    R1        3.71985   0.00036  -0.00583   0.00357  -0.00227   3.71758
    R2        3.65960  -0.00005   0.00061  -0.00048   0.00013   3.65973
    R3        3.66150  -0.00001   0.00129  -0.00038   0.00091   3.66241
    R4        3.64880  -0.00014   0.00244  -0.00143   0.00101   3.64981
    R5        3.07615   0.00007   0.00000   0.00027   0.00030   3.07645
    R6        3.12219   0.00007  -0.00225   0.00072  -0.00153   3.12066
    R7        3.14151  -0.00008   0.00132  -0.00055   0.00077   3.14228
    R8        3.12655  -0.00001  -0.00034   0.00005  -0.00029   3.12627
    R9        1.82094   0.00002  -0.00001   0.00005   0.00004   1.82098
   R10        1.82074   0.00001  -0.00002   0.00001  -0.00001   1.82073
   R11        1.82130  -0.00000  -0.00001  -0.00001  -0.00002   1.82127
   R12        1.80841  -0.00001   0.00005  -0.00004   0.00001   1.80842
   R13        1.80866  -0.00001   0.00007  -0.00003   0.00004   1.80869
   R14        1.80853  -0.00000  -0.00008   0.00002  -0.00006   1.80847
    A1        1.88927  -0.00001   0.00107  -0.00018   0.00093   1.89020
    A2        1.88226  -0.00010  -0.00231   0.00004  -0.00222   1.88004
    A3        1.91796   0.00003   0.00215  -0.00043   0.00164   1.91960
    A4        1.92239  -0.00004  -0.00181   0.00050  -0.00114   1.92125
    A5        1.92228   0.00006   0.00052   0.00004   0.00047   1.92275
    A6        1.92885   0.00005   0.00036   0.00002   0.00029   1.92914
    A7        0.08607   0.00029   0.00000   0.00000  -0.00000   0.08607
    A8        1.85750   0.00000   0.00100  -0.00034   0.00065   1.85815
    A9        1.91694  -0.00002   0.00017  -0.00002   0.00016   1.91711
   A10        2.00325  -0.00001  -0.00163   0.00023  -0.00141   2.00185
   A11        1.98502  -0.00001  -0.00075   0.00028  -0.00046   1.98456
   A12        1.87036   0.00008   0.00206  -0.00042   0.00158   1.87193
   A13        1.83409  -0.00004  -0.00091   0.00029  -0.00057   1.83352
   A14        2.02329   0.00004  -0.00105   0.00060  -0.00045   2.02284
   A15        2.02780   0.00000   0.00126  -0.00025   0.00101   2.02881
   A16        2.01620  -0.00001   0.00018  -0.00010   0.00008   2.01629
   A17        3.26397   0.00053   0.00709  -0.00005   0.00645   3.27042
   A18        3.27499  -0.00001  -0.00135  -0.00055  -0.00190   3.27308
   A19        3.33575   0.00004   0.00668   0.00200   0.00868   3.34442
   A20        3.06407  -0.00001   0.00054  -0.00094  -0.00040   3.06367
   A21        3.01235  -0.00026   0.01028   0.00003   0.01064   3.02299
   A22        3.02779   0.00001  -0.00125   0.00114  -0.00011   3.02768
   A23        3.19096   0.00001   0.00372   0.00016   0.00389   3.19484
   A24        3.13004   0.00003   0.01436  -0.00056   0.01380   3.14384
    D1       -2.85110   0.00008   0.03439   0.00587   0.04016  -2.81094
    D2        1.27853   0.00005   0.03104   0.00576   0.03672   1.31525
    D3       -0.83635  -0.00001   0.03596   0.00525   0.04117  -0.79517
    D4        1.31100   0.00004   0.03609   0.00534   0.04147   1.35247
    D5       -0.84255   0.00001   0.03274   0.00523   0.03803  -0.80452
    D6       -2.95743  -0.00005   0.03766   0.00471   0.04249  -2.91495
    D7       -0.76529   0.00006   0.03302   0.00535   0.03834  -0.72695
    D8       -2.91884   0.00003   0.02967   0.00525   0.03490  -2.88394
    D9        1.24946  -0.00003   0.03459   0.00473   0.03935   1.28882
   D10        2.89549   0.00002  -0.00044   0.00008  -0.00038   2.89511
   D11       -1.27471  -0.00001   0.00001  -0.00001  -0.00000  -1.27471
[...]
 ! A21   L(1,3,2,7,-2)         172.5524         -DE/DX =   -0.0002              !
 ! A22   L(1,10,11,8,-2)       172.6465         -DE/DX =    0.0                 !
 ! A23   L(1,12,13,7,-2)       180.7711         -DE/DX =    0.0                 !
 ! A24   L(1,14,15,9,-2)       179.2263         -DE/DX =    0.0                 !
 ! D1    D(10,1,2,4)          -147.6069         -DE/DX =    0.0                 !
 ! D2    D(10,1,2,5)            89.0045         -DE/DX =    0.0                 !
 ! D3    D(10,1,2,6)           -32.1579         -DE/DX =    0.0                 !
 ! D4    D(12,1,2,4)            90.6337         -DE/DX =    0.0                 !
 ! D5    D(12,1,2,5)           -32.7548         -DE/DX =    0.0                 !
 ! D6    D(12,1,2,6)          -153.9172         -DE/DX =    0.0                 !
 ! D7    D(14,1,2,4)           -28.4809         -DE/DX =    0.0                 !
 ! D8    D(14,1,2,5)          -151.8694         -DE/DX =    0.0                 !
 ! D9    D(14,1,2,6)            86.9681         -DE/DX =    0.0                 !
 ! D10   D(3,2,4,9)            166.1461         -DE/DX =    0.0                 !
 ! D11   D(5,2,4,9)            -72.8284         -DE/DX =    0.0                 !
 ! D12   D(6,2,4,9)             42.88           -DE/DX =    0.0                 !
 ! D13   D(3,2,5,7)             36.417          -DE/DX =    0.0                 !
 ! D14   D(4,2,5,7)            -82.702          -DE/DX =    0.0                 !
 ! D15   D(6,2,5,7)            160.3735         -DE/DX =    0.0                 !
 ! D16   D(3,2,6,8)             88.3542         -DE/DX =    0.0                 !
 ! D17   D(4,2,6,8)           -153.7015         -DE/DX =    0.0                 !
 ! D18   D(5,2,6,8)            -32.3706         -DE/DX =    0.0                 !
 --------------------------------------------------------------------------------
 GradGradGradGradGradGradGradGradGradGradGradGradGradGradGradGradGradGrad

                          Input orientation:                          
 ---------------------------------------------------------------------
 Center     Atomic      Atomic             Coordinates (Angstroms)
 Number     Number       Type             X           Y           Z
 ---------------------------------------------------------------------
      1         40           0        1.377205   -0.015277    0.001586
      2         14           0       -2.200746   -0.256212    0.010175
      3          8           0       -0.573364   -0.281289    0.045424
      4          8           0       -2.654090    1.269845    0.452859
      5          8           0       -2.803688   -1.447429    1.000323
      6          8           0       -2.866942   -0.552252   -1.474930
      7          1           0       -2.312507   -1.613373    1.812526
      8          1           0       -3.028432   -1.479858   -1.680661
      9          1           0       -3.573330    1.502634    0.281475
     10          8           0        2.127753   -1.175226   -1.354344
     11          1           0        2.589901   -1.629715   -2.058378
     12          8           0        2.067128   -0.489124    1.750924
     13          1           0        2.599642   -0.632440    2.533335
     14          8           0        1.781846    1.828067   -0.404705
     15          1           0        1.889253    2.761636   -0.586131
 ---------------------------------------------------------------------
                    Distance matrix (angstroms):
                    1          2          3          4          5
     1  Zr   0.000000
     2  Si   3.586065   0.000000
     3  O    1.969112   1.627957   0.000000
     4  O    4.255176   1.652374   2.627059   0.000000
     5  O    4.530828   1.662206   2.691851   2.775909   0.000000
     6  O    4.525619   1.654386   2.765032   2.661149   2.632911
     7  H    4.409920   2.258948   2.814554   3.205982   0.963571
     8  H    4.938075   2.245284   3.231609   3.500415   2.690583
     9  H    5.185575   2.247472   3.498271   0.963621   3.132405
    10  O    1.935807   4.630595   3.170885   5.666602   5.471532
    11  H    2.884526   5.395899   4.031189   6.497169   6.203200
    12  O    1.939255   4.615106   3.150258   5.202773   5.020618
    13  H    2.878368   5.436140   4.047342   5.962279   5.675413
    14  O    1.930472   4.514132   3.193589   4.552423   5.807762
    15  H    2.884241   5.117722   3.965191   4.893557   6.500520
                    6          7          8          9         10
     6  O    0.000000
     7  H    3.498677   0.000000
     8  H    0.963772   3.568295   0.000000
     9  H    2.794011   3.693683   3.611392   0.000000
    10  O    5.034841   5.471467   5.175474   6.507625   0.000000
    11  H    5.592717   6.246420   5.633009   7.298763   0.956977
    12  O    5.895352   4.522050   6.222705   6.159639   3.180739
    13  H    6.779098   5.060732   7.081744   6.909052   3.953649
    14  O    5.331279   5.789935   5.975718   5.408758   3.168790
    15  H    5.864572   6.522963   6.585734   5.672533   4.018198
                   11         12         13         14         15
    11  H    0.000000
    12  O    4.010614   0.000000
    13  H    4.698774   0.957224   0.000000
    14  O    3.917122   3.177656   3.918541   0.000000
    15  H    4.684270   4.007607   4.664277   0.957081   0.000000
 Stoichiometry    H6O7SiZr
 Framework group  C1[X(H6O7SiZr)]
 Deg. of freedom    39
 Full point group                 C1      NOp   1
 Largest Abelian subgroup         C1      NOp   1
 Largest concise Abelian subgroup C1      NOp   1
                         Standard orientation:                         
 ---------------------------------------------------------------------
 Center     Atomic      Atomic             Coordinates (Angstroms)
 Number     Number       Type             X           Y           Z
 ---------------------------------------------------------------------
      1         40           0        1.388007   -0.005604   -0.010240
      2         14           0       -2.197981   -0.002375    0.012902
      3          8           0       -0.576105   -0.142827    0.018716
      4          8           0       -2.543033    1.456080    0.708739
      5          8           0       -2.878057   -1.297978    0.801471
      6          8           0       -2.888719   -0.002023   -1.490386
      7          1           0       -2.396426   -1.629276    1.567463
      8          1           0       -3.114742   -0.869535   -1.844215
      9          1           0       -3.444625    1.775650    0.592243
     10          8           0        2.051375   -0.972317   -1.550616
     11          1           0        2.478301   -1.333760   -2.327082
     12          8           0        2.050193   -0.808850    1.625919
     13          1           0        2.574508   -1.115732    2.365646
     14          8           0        1.917576    1.848010   -0.112185
     15          1           0        2.088580    2.789327   -0.138326
 ---------------------------------------------------------------------
 Rotational constants (GHZ):           1.6246058           0.4712780           0.4683359

 **********************************************************************

            Population analysis using the SCF Density.

 **********************************************************************

 Orbital symmetries:
       Occupied  (A) (A) (A) (A) (A) (A) (A) (A) (A) (A) (A) (A)
                 (A) (A) (A) (A) (A) (A) (A) (A) (A) (A) (A) (A)
                 (A) (A) (A) (A) (A) (A) (A) (A) (A) (A) (A) (A)
                 (A) (A) (A) (A) (A) (A) (A) (A)
       Virtual   (A) (A) (A) (A) (A) (A) (A) (A) (A) (A) (A) (A)
                 (A) (A) (A) (A) (A) (A) (A) (A) (A) (A) (A) (A)
                 (A) (A) (A) (A) (A) (A) (A) (A) (A) (A) (A) (A)
                 (A) (A) (A) (A) (A) (A) (A) (A) (A) (A) (A) (A)
                 (A) (A) (A) (A) (A) (A) (A) (A) (A) (A) (A) (A)
                 (A) (A) (A) (A) (A) (A) (A) (A) (A) (A) (A) (A)
                 (A) (A) (A) (A) (A) (A) (A) (A) (A) (A) (A) (A)
                 (A) (A) (A) (A) (A) (A) (A) (A) (A) (A) (A) (A)
                 (A) (A) (A) (A) (A) (A) (A) (A) (A) (A) (A) (A)
                 (A) (A) (A) (A) (A) (A) (A) (A) (A) (A) (A) (A)
                 (A) (A) (A) (A) (A) (A) (A) (A) (A) (A) (A) (A)
                 (A) (A) (A) (A) (A) (A) (A) (A) (A) (A) (A) (A)
                 (A) (A) (A) (A) (A) (A) (A) (A) (A) (A) (A) (A)
                 (A) (A) (A) (A) (A) (A) (A) (A) (A) (A) (A) (A)
                 (A) (A) (A) (A) (A) (A) (A) (A) (A) (A) (A) (A)
                 (A) (A) (A) (A) (A) (A) (A) (A) (A) (A) (A) (A)
                 (A) (A) (A) (A) (A) (A) (A) (A) (A) (A) (A) (A)
                 (A) (A) (A) (A) (A) (A) (A) (A) (A) (A) (A) (A)
                 (A) (A) (A) (A) (A) (A)
 The electronic state is 1-A.
 Alpha  occ. eigenvalues --  -66.19971 -19.15201 -19.15153 -19.14902 -19.14404
 Alpha  occ. eigenvalues --  -19.14329 -19.14311 -19.13248  -5.34066  -3.70032
 Alpha  occ. eigenvalues --   -3.70026  -3.69985  -2.11267  -1.27556  -1.27477
 Alpha  occ. eigenvalues --   -1.27176  -1.02790  -0.99598  -0.99424  -0.96673
 Alpha  occ. eigenvalues --   -0.95455  -0.95431  -0.94142  -0.57482  -0.52280
 Alpha  occ. eigenvalues --   -0.51580  -0.50372  -0.49727  -0.49641  -0.45721
 Alpha  occ. eigenvalues --   -0.39626  -0.37830  -0.37274  -0.36089  -0.35665
 Alpha  occ. eigenvalues --   -0.34617  -0.34270  -0.33926  -0.32975  -0.32834
 Alpha  occ. eigenvalues --   -0.32069  -0.31336  -0.31260  -0.30655
 Alpha virt. eigenvalues --   -0.02965  -0.01300  -0.00797  -0.00588   0.00224
 Alpha virt. eigenvalues --    0.00317   0.01179   0.01326   0.01684   0.02202
 Alpha virt. eigenvalues --    0.02352   0.02933   0.03254   0.03293   0.03334
 Alpha virt. eigenvalues --    0.04233   0.04484   0.04605   0.05172   0.05785
 Alpha virt. eigenvalues --    0.06837   0.09059   0.09541   0.09740   0.10044
 Alpha virt. eigenvalues --    0.10182   0.11146   0.12409   0.13627   0.13679
 Alpha virt. eigenvalues --    0.14874   0.15302   0.15916   0.16397   0.17700
 Alpha virt. eigenvalues --    0.18230   0.18507   0.18755   0.19470   0.19489
 Alpha virt. eigenvalues --    0.20619   0.20755   0.20951   0.21741   0.22410
 Alpha virt. eigenvalues --    0.22942   0.24058   0.25041   0.26115   0.26426
 Alpha virt. eigenvalues --    0.27143   0.27671   0.28035   0.28298   0.28717
 Alpha virt. eigenvalues --    0.29277   0.29447   0.29618   0.30075   0.30550
 Alpha virt. eigenvalues --    0.31209   0.32712   0.33582   0.33936   0.34968
 Alpha virt. eigenvalues --    0.35592   0.35951   0.37326   0.38207   0.39789
 Alpha virt. eigenvalues --    0.42044   0.43740   0.44765   0.46726   0.47491
 Alpha virt. eigenvalues --    0.47898   0.49410   0.50439   0.51524   0.51963
 Alpha virt. eigenvalues --    0.54329   0.57484   0.58110   0.60386   0.60623
 Alpha virt. eigenvalues --    0.61327   0.62319   0.63002   0.64440   0.64739
 Alpha virt. eigenvalues --    0.65795   0.67886   0.70675   0.72363   0.73332
 Alpha virt. eigenvalues --    0.75634   0.75827   0.76854   0.78141   0.81729
 Alpha virt. eigenvalues --    0.85045   0.86212   0.96229   0.97887   0.99277
 Alpha virt. eigenvalues --    1.01545   1.02681   1.04927   1.05472   1.06388
 Alpha virt. eigenvalues --    1.07643   1.18581   1.19752   1.20302   1.21372
 Alpha virt. eigenvalues --    1.21631   1.22676   1.23386   1.23762   1.24802
 Alpha virt. eigenvalues --    1.25830   1.26427   1.27729   1.28313   1.28506
 Alpha virt. eigenvalues --    1.28940   1.29946   1.30685   1.31776   1.32764
 Alpha virt. eigenvalues --    1.33371   1.36930   1.42517   1.43801   1.45849
 Alpha virt. eigenvalues --    1.49262   1.53170   1.56458   1.59783   1.60886
 Alpha virt. eigenvalues --    1.63169   1.63264   1.63891   1.64539   1.67865
 Alpha virt. eigenvalues --    1.68893   1.71561   1.72355   1.72526   1.72813
 Alpha virt. eigenvalues --    1.73593   1.74282   1.75452   1.76497   1.77520
 Alpha virt. eigenvalues --    1.79033   1.80621   1.83005   1.83567   1.84226
 Alpha virt. eigenvalues --    1.86009   1.88018   1.90532   1.90764   1.92133
 Alpha virt. eigenvalues --    1.93007   1.93292   1.94892   1.96282   1.97286
 Alpha virt. eigenvalues --    1.99064   1.99292   2.00974   2.02055   2.06253
 Alpha virt. eigenvalues --    2.06863   2.07881   2.10005   2.14914   2.17827
 Alpha virt. eigenvalues --    2.19016   2.20806   2.21548   2.27331   2.32251
 Alpha virt. eigenvalues --    2.36474   2.41965   2.42436   2.43635   2.44891
 Alpha virt. eigenvalues --    2.51356   2.58601   2.58706   2.62588   2.63455
 Alpha virt. eigenvalues --    2.64552   2.66503   2.68152   2.68874   2.73158
 Alpha virt. eigenvalues --    2.77892   2.80378   2.80562   2.83765   2.87538
 Alpha virt. eigenvalues --    2.90326   2.90710   2.91239   2.92487   2.93838
 Alpha virt. eigenvalues --    3.02237   3.18762   3.47266   3.48149   3.52139
 Alpha virt. eigenvalues --    3.53568   3.56673   3.92883   4.11657   4.14906
 Alpha virt. eigenvalues --    4.17914  31.11430
          Condensed to atoms (all electrons):
               1          2          3          4          5          6
     1  Zr  10.425550   0.121213  -0.023311  -0.003219  -0.065499  -0.040281
     2  Si   0.121213  12.912566  -0.655179  -0.075896  -0.114092  -0.001299
     3  O   -0.023311  -0.655179   8.924655   0.125253   0.260491   0.101700
     4  O   -0.003219  -0.075896   0.125253   8.565350  -0.030675   0.019848
     5  O   -0.065499  -0.114092   0.260491  -0.030675   8.516096   0.030666
     6  O   -0.040281  -0.001299   0.101700   0.019848   0.030666   8.522885
     7  H   -0.002906   0.028601  -0.003028  -0.006732   0.243290   0.006593
     8  H    0.001159   0.063147  -0.021936   0.006922  -0.006601   0.232021
     9  H   -0.003461   0.037331   0.009474   0.222767  -0.005707  -0.005932
    10  O    0.037462  -0.018542  -0.023746   0.000757   0.000691   0.001685
    11  H   -0.087311   0.000869  -0.001058   0.000000   0.000001   0.000014
    12  O    0.050011  -0.017775  -0.022720   0.000202   0.002342   0.000429
    13  H   -0.084789   0.000812  -0.000987  -0.000004   0.000004   0.000001
    14  O    0.031862  -0.027288  -0.025088   0.002921   0.001052  -0.000180
    15  H   -0.090162   0.000860  -0.000895   0.000073   0.000003   0.000002
               7          8          9         10         11         12
     1  Zr  -0.002906   0.001159  -0.003461   0.037462  -0.087311   0.050011
     2  Si   0.028601   0.063147   0.037331  -0.018542   0.000869  -0.017775
     3  O   -0.003028  -0.021936   0.009474  -0.023746  -0.001058  -0.022720
     4  O   -0.006732   0.006922   0.222767   0.000757   0.000000   0.000202
     5  O    0.243290  -0.006601  -0.005707   0.000691   0.000001   0.002342
     6  O    0.006593   0.232021  -0.005932   0.001685   0.000014   0.000429
     7  H    0.370567   0.000057   0.000096   0.000016   0.000000  -0.000145
     8  H    0.000057   0.358666   0.000052   0.000011   0.000000  -0.000010
     9  H    0.000096   0.000052   0.371185   0.000000  -0.000000  -0.000007
    10  O    0.000016   0.000011   0.000000   8.600401   0.327193  -0.034092
    11  H    0.000000   0.000000  -0.000000   0.327193   0.382034  -0.000689
    12  O   -0.000145  -0.000010  -0.000007  -0.034092  -0.000689   8.585215
    13  H    0.000000   0.000000  -0.000000  -0.000917  -0.000008   0.324094
    14  O   -0.000014  -0.000005  -0.000068  -0.034199  -0.001308  -0.036283
    15  H    0.000000  -0.000000  -0.000000  -0.000658  -0.000008  -0.000803
              13         14         15
     1  Zr  -0.084789   0.031862  -0.090162
     2  Si   0.000812  -0.027288   0.000860
     3  O   -0.000987  -0.025088  -0.000895
     4  O   -0.000004   0.002921   0.000073
     5  O    0.000004   0.001052   0.000003
     6  O    0.000001  -0.000180   0.000002
     7  H    0.000000  -0.000014   0.000000
     8  H    0.000000  -0.000005  -0.000000
     9  H   -0.000000  -0.000068  -0.000000
    10  O   -0.000917  -0.034199  -0.000658
    11  H   -0.000008  -0.001308  -0.000008
    12  O    0.324094  -0.036283  -0.000803
    13  H    0.382081  -0.001312  -0.000010
    14  O   -0.001312   8.604753   0.332379
    15  H   -0.000010   0.332379   0.378812
 Mulliken charges:
               1
     1  Zr   1.733682
     2  Si   1.744673
     3  O   -0.643625
     4  O   -0.827568
     5  O   -0.832060
     6  O   -0.868151
     7  H    0.363604
     8  H    0.366517
     9  H    0.374269
    10  O   -0.856063
    11  H    0.380271
    12  O   -0.849768
    13  H    0.381036
    14  O   -0.847222
    15  H    0.380406
 Sum of Mulliken charges =  -0.00000
 Mulliken charges with hydrogens summed into heavy atoms:
               1
     1  Zr   1.733682
     2  Si   1.744673
     3  O   -0.643625
     4  O   -0.453299
     5  O   -0.468457
     6  O   -0.501634
    10  O   -0.475792
    12  O   -0.468733
    14  O   -0.466816
 Electronic spatial extent (au):  <R**2>=           2267.1311
 Charge=             -0.0000 electrons
 Dipole moment (field-independent basis, Debye):
    X=              1.9500    Y=             -0.7504    Z=              0.2725  Tot=              2.1071
 Quadrupole moment (field-independent basis, Debye-Ang):
   XX=            -68.8554   YY=            -68.8014   ZZ=            -67.8959
   XY=             -0.3331   XZ=             -0.1336   YZ=              0.5613
 Traceless Quadrupole moment (field-independent basis, Debye-Ang):
   XX=             -0.3378   YY=             -0.2839   ZZ=              0.6217
   XY=             -0.3331   XZ=             -0.1336   YZ=              0.5613
 Octapole moment (field-independent basis, Debye-Ang**2):
  XXX=             46.8783  YYY=             19.0243  ZZZ=              2.7303  XYY=             22.0165
  XXY=              9.2768  XXZ=              0.3658  XZZ=             30.6137  YZZ=            -25.7155
  YYZ=             -2.7356  XYZ=             -6.8886
 Hexadecapole moment (field-independent basis, Debye-Ang**3):
 XXXX=          -1898.8503 YYYY=           -358.1501 ZZZZ=           -346.6964 XXXY=           -104.8887
 XXXZ=             16.5143 YYYX=             33.3393 YYYZ=             -7.4961 ZZZX=             -2.9267
 ZZZY=              3.9898 XXYY=           -342.9234 XXZZ=           -330.0830 YYZZ=           -115.7929
 XXYZ=             38.2046 YYXZ=             -2.2952 ZZXY=             -4.0818
 N-N= 6.308435267759D+02 E-N=-3.299211402012D+03  KE= 8.306835491655D+02
 1\1\GINC-GRA1205\FOpt\RB3LYP\Gen\H6O7Si1Zr1\SARASHS\15-Jul-2020\0\\#n 
 B3LYP/Gen Pseudo=cards EmpiricalDispersion=GD3 Opt=modredundant\\Title
 \\0,1\Zr,1.3772051284,-0.0152765364,0.0015857\Si,-2.2007461493,-0.2562
 118694,0.0101751959\O,-0.5733639381,-0.2812887753,0.0454244125\O,-2.65
 40899584,1.2698451066,0.4528592905\O,-2.8036882437,-1.4474285526,1.000
 3231988\O,-2.8669424024,-0.5522516597,-1.4749300311\H,-2.3125068851,-1
 .6133728606,1.8125258532\H,-3.0284315223,-1.4798578753,-1.680661209\H,
 -3.573329932,1.5026342494,0.2814749747\O,2.127753446,-1.1752258723,-1.
 3543435025\H,2.589901415,-1.6297147359,-2.058377695\O,2.0671279874,-0.
 4891240096,1.7509243187\H,2.5996423373,-0.6324399103,2.5333354722\O,1.
 781846056,1.8280669365,-0.4047050002\H,1.8892526613,2.7616363651,-0.58
 61309786\\Version=ES64L-G16RevB.01\State=1-A\HF=-867.1278163\RMSD=9.66
 0e-09\RMSF=5.428e-05\Dipole=0.7836602,-0.21967,0.1576551\Quadrupole=-0
 .2135607,-0.0929829,0.3065436,-0.2735964,-0.0936284,0.4982855\PG=C01 [
 X(H6O7Si1Zr1)]\\@


 DO NOT LET SELFISH MEN OR GREEDY INTERESTS SKIN YOUR COUNTRY OF ITS
 BEAUTY, ITS RICHES, OR ITS ROMANCE. -- THEODORE ROOSEVELT
 Job cpu time:       0 days  3 hours 34 minutes 35.2 seconds.
 Elapsed time:       0 days  0 hours 15 minutes 23.1 seconds.
 File lengths (MBytes):  RWF=     48 Int=      0 D2E=      0 Chk=      6 Scr=      1
 Normal termination of Gaussian 16 at Wed Jul 15 14:51:08 2020.
