 Entering Gaussian System, Link 0=g16
 Initial command:
 /opt/software/gaussian/g16.b01/l1.exe "/localscratch/sarashs.35132320.0/Gau-5900.inp" -scrdir="/localscratch/sarashs.35132320.0/"
 Entering Link 1 = /opt/software/gaussian/g16.b01/l1.exe PID=      5901.
  
 Copyright (c) 1988-2017, Gaussian, Inc.  All Rights Reserved.
  
 This is part of the Gaussian(R) 16 program.  It is based on
 the Gaussian(R) 09 system (copyright 2009, Gaussian, Inc.),
 the Gaussian(R) 03 system (copyright 2003, Gaussian, Inc.),
 the Gaussian(R) 98 system (copyright 1998, Gaussian, Inc.),
 the Gaussian(R) 94 system (copyright 1995, Gaussian, Inc.),
 the Gaussian 92(TM) system (copyright 1992, Gaussian, Inc.),
 the Gaussian 90(TM) system (copyright 1990, Gaussian, Inc.),
 the Gaussian 88(TM) system (copyright 1988, Gaussian, Inc.),
 the Gaussian 86(TM) system (copyright 1986, Carnegie Mellon
 University), and the Gaussian 82(TM) system (copyright 1983,
 Carnegie Mellon University). Gaussian is a federally registered
 trademark of Gaussian, Inc.
  
 This software contains proprietary and confidential information,
 including trade secrets, belonging to Gaussian, Inc.
  
 This software is provided under written license and may be
 used, copied, transmitted, or stored only in accord with that
 written license.
  
 The following legend is applicable only to US Government
 contracts under FAR:
  
                    RESTRICTED RIGHTS LEGEND
  
 Use, reproduction and disclosure by the US Government is
 subject to restrictions as set forth in subparagraphs (a)
 and (c) of the Commercial Computer Software - Restricted
 Rights clause in FAR 52.227-19.
  
 Gaussian, Inc.
 340 Quinnipiac St., Bldg. 40, Wallingford CT 06492
  
  
 ---------------------------------------------------------------
 Warning -- This program may not be used in any manner that
 competes with the business of Gaussian, Inc. or will provide
 assistance to any competitor of Gaussian, Inc.  The licensee
 of this program is prohibited from giving any competitor of
 Gaussian, Inc. access to this program.  By using this program,
 the user acknowledges that Gaussian, Inc. is engaged in the
 business of creating and licensing software in the field of
 computational chemistry and represents and warrants to the
 licensee that it is not a competitor of Gaussian, Inc. and that
 it will not use this program in any manner prohibited above.
 ---------------------------------------------------------------
  

 Cite this work as:
 Gaussian 16, Revision B.01,
 M. J. Frisch, G. W. Trucks, H. B. Schlegel, G. E. Scuseria, 
 M. A. Robb, J. R. Cheeseman, G. Scalmani, V. Barone, 
 G. A. Petersson, H. Nakatsuji, X. Li, M. Caricato, A. V. Marenich, 
 J. Bloino, B. G. Janesko, R. Gomperts, B. Mennucci, H. P. Hratchian, 
 J. V. Ortiz, A. F. Izmaylov, J. L. Sonnenberg, D. Williams-Young, 
 F. Ding, F. Lipparini, F. Egidi, J. Goings, B. Peng, A. Petrone, 
 T. Henderson, D. Ranasinghe, V. G. Zakrzewski, J. Gao, N. Rega, 
 G. Zheng, W. Liang, M. Hada, M. Ehara, K. Toyota, R. Fukuda, 
 J. Hasegawa, M. Ishida, T. Nakajima, Y. Honda, O. Kitao, H. Nakai, 
 T. Vreven, K. Throssell, J. A. Montgomery, Jr., J. E. Peralta, 
 F. Ogliaro, M. J. Bearpark, J. J. Heyd, E. N. Brothers, K. N. Kudin, 
 V. N. Staroverov, T. A. Keith, R. Kobayashi, J. Normand, 
 K. Raghavachari, A. P. Rendell, J. C. Burant, S. S. Iyengar, 
 J. Tomasi, M. Cossi, J. M. Millam, M. Klene, C. Adamo, R. Cammi, 
 J. W. Ochterski, R. L. Martin, K. Morokuma, O. Farkas, 
 J. B. Foresman, and D. J. Fox, Gaussian, Inc., Wallingford CT, 2016.
 
 ******************************************
 Gaussian 16:  ES64L-G16RevB.01 20-Dec-2017
                15-Jul-2020 
 ******************************************
 %NProcShared=16
 Will use up to   16 processors via shared memory.
 ------------------------------------------------------------------
 #n B3LYP/Gen Pseudo=cards EmpiricalDispersion=GD3 Opt=modredundant
 ------------------------------------------------------------------
 1/18=120,19=15,26=3,38=1/1,3;
 2/9=110,12=2,17=6,18=5,40=1/2;
 3/5=7,11=2,16=1,17=8,25=1,30=1,71=1,74=-5,124=31/1,2,3;
 4//1;
 5/5=2,38=5/2;
 6/7=2,8=2,9=2,10=2,28=1/1;
 7//1,2,3,16;
 1/18=20,19=15,26=3/3(2);
 2/9=110/2;
 99//99;
 2/9=110/2;
 3/5=7,6=1,11=2,16=1,17=8,25=1,30=1,71=1,74=-5,82=7,124=31/1,2,3;
 4/5=5,16=3,69=1/1;
 5/5=2,38=5/2;
 7//1,2,3,16;
 1/18=20,19=15,26=3/3(-5);
 2/9=110/2;
 6/7=2,8=2,9=2,10=2,19=2,28=1/1;
 99/9=1/99;
 -----
 Title
 -----
 Symbolic Z-matrix:
 Charge =  0 Multiplicity = 1
 Zr                    1.37839  -0.01367  -0.01029 
 Si                   -2.19051  -0.08349   0.01716 
 O                    -0.57498  -0.28442   0.01654 
 O                    -2.47827   1.37665   0.73697 
 O                    -2.91748  -1.36452   0.78664 
 O                    -2.88505  -0.0305   -1.48369 
 H                    -2.43942  -1.73612   1.53613 
 H                    -3.14778  -0.88247  -1.84978 
 H                    -3.36606   1.73444   0.62576 
 O                     2.15239  -1.31312  -1.2196 
 H                     2.65751  -1.85105  -1.82887 
 O                     2.04402  -0.29207   1.78758 
 H                     2.51011  -0.3161    2.62313 
 O                     1.78195   1.7752   -0.6111 
 H                     1.91399   2.68442  -0.87911 
 
 The following ModRedundant input section has been read:
 A       1       2       3 F                                                   
 

 GradGradGradGradGradGradGradGradGradGradGradGradGradGradGradGradGradGrad
 Berny optimization.
 Initialization pass.
                           ----------------------------
                           !    Initial Parameters    !
                           ! (Angstroms and Degrees)  !
 --------------------------                            --------------------------
 ! Name  Definition              Value          Derivative Info.                !
 --------------------------------------------------------------------------------
 ! R1    R(1,3)                  1.9722         estimate D2E/DX2                !
 ! R2    R(1,10)                 1.9365         estimate D2E/DX2                !
 ! R3    R(1,12)                 1.9372         estimate D2E/DX2                !
 ! R4    R(1,14)                 1.9297         estimate D2E/DX2                !
 ! R5    R(2,3)                  1.628          estimate D2E/DX2                !
 ! R6    R(2,4)                  1.6532         estimate D2E/DX2                !
 ! R7    R(2,5)                  1.6618         estimate D2E/DX2                !
 ! R8    R(2,6)                  1.6546         estimate D2E/DX2                !
 ! R9    R(4,9)                  0.9636         estimate D2E/DX2                !
 ! R10   R(5,7)                  0.9635         estimate D2E/DX2                !
 ! R11   R(6,8)                  0.9638         estimate D2E/DX2                !
 ! R12   R(10,11)                0.9569         estimate D2E/DX2                !
 ! R13   R(12,13)                0.9571         estimate D2E/DX2                !
 ! R14   R(14,15)                0.9571         estimate D2E/DX2                !
 ! A1    A(3,1,10)             108.1944         estimate D2E/DX2                !
 ! A2    A(3,1,12)             107.9362         estimate D2E/DX2                !
 ! A3    A(3,1,14)             109.793          estimate D2E/DX2                !
 ! A4    A(10,1,12)            110.2299         estimate D2E/DX2                !
 ! A5    A(10,1,14)            110.1226         estimate D2E/DX2                !
 ! A6    A(12,1,14)            110.5061         estimate D2E/DX2                !
 ! A7    A(1,2,3)                8.221          Frozen                          !
 ! A8    A(3,2,4)              106.3745         estimate D2E/DX2                !
 ! A9    A(3,2,5)              109.8248         estimate D2E/DX2                !
 ! A10   A(3,2,6)              114.8445         estimate D2E/DX2                !
 ! A11   A(4,2,5)              113.772          estimate D2E/DX2                !
 ! A12   A(4,2,6)              107.0735         estimate D2E/DX2                !
 ! A13   A(5,2,6)              105.1334         estimate D2E/DX2                !
 ! A14   A(2,4,9)              115.9806         estimate D2E/DX2                !
 ! A15   A(2,5,7)              116.1315         estimate D2E/DX2                !
 ! A16   A(2,6,8)              115.5094         estimate D2E/DX2                !
 ! A17   L(1,3,2,15,-1)        165.4319         estimate D2E/DX2                !
 ! A18   L(1,10,11,8,-1)       187.4299         estimate D2E/DX2                !
 ! A19   L(1,12,13,7,-1)       190.7215         estimate D2E/DX2                !
 ! A20   L(1,14,15,4,-1)       175.4378         estimate D2E/DX2                !
 ! A21   L(1,3,2,15,-2)        184.6497         estimate D2E/DX2                !
 ! A22   L(1,10,11,8,-2)       173.1118         estimate D2E/DX2                !
 ! A23   L(1,12,13,7,-2)       183.3235         estimate D2E/DX2                !
 ! A24   L(1,14,15,4,-2)       179.062          estimate D2E/DX2                !
 ! D1    D(10,1,2,4)          -163.6158         estimate D2E/DX2                !
 ! D2    D(10,1,2,5)            73.5677         estimate D2E/DX2                !
 ! D3    D(10,1,2,6)           -50.0508         estimate D2E/DX2                !
 ! D4    D(12,1,2,4)            73.0846         estimate D2E/DX2                !
 ! D5    D(12,1,2,5)           -49.7319         estimate D2E/DX2                !
 ! D6    D(12,1,2,6)          -173.3504         estimate D2E/DX2                !
 ! D7    D(14,1,2,4)           -44.6427         estimate D2E/DX2                !
 ! D8    D(14,1,2,5)          -167.4592         estimate D2E/DX2                !
 ! D9    D(14,1,2,6)            68.9223         estimate D2E/DX2                !
 ! D10   D(3,2,4,9)            165.9158         estimate D2E/DX2                !
 ! D11   D(5,2,4,9)            -73.0414         estimate D2E/DX2                !
 ! D12   D(6,2,4,9)             42.6616         estimate D2E/DX2                !
 ! D13   D(3,2,5,7)             35.3291         estimate D2E/DX2                !
 ! D14   D(4,2,5,7)            -83.7653         estimate D2E/DX2                !
 ! D15   D(6,2,5,7)            159.3968         estimate D2E/DX2                !
 ! D16   D(3,2,6,8)             88.6233         estimate D2E/DX2                !
 ! D17   D(4,2,6,8)           -153.5244         estimate D2E/DX2                !
 ! D18   D(5,2,6,8)            -32.1992         estimate D2E/DX2                !
 --------------------------------------------------------------------------------
 Trust Radius=3.00D-01 FncErr=1.00D-07 GrdErr=1.00D-06 EigMax=2.50D+02 EigMin=1.00D-04
 Number of steps in this run=     66 maximum allowed number of steps=    100.
 GradGradGradGradGradGradGradGradGradGradGradGradGradGradGradGradGradGrad

                          Input orientation:                          
 ---------------------------------------------------------------------
 Center     Atomic      Atomic             Coordinates (Angstroms)
 Number     Number       Type             X           Y           Z
 ---------------------------------------------------------------------
      1         40           0        1.378390   -0.013670   -0.010290
      2         14           0       -2.190510   -0.083490    0.017160
      3          8           0       -0.574980   -0.284420    0.016540
      4          8           0       -2.478270    1.376650    0.736970
      5          8           0       -2.917480   -1.364520    0.786640
      6          8           0       -2.885050   -0.030500   -1.483690
      7          1           0       -2.439420   -1.736120    1.536130
      8          1           0       -3.147780   -0.882470   -1.849780
      9          1           0       -3.366060    1.734440    0.625760
     10          8           0        2.152390   -1.313120   -1.219600
     11          1           0        2.657510   -1.851050   -1.828870
     12          8           0        2.044020   -0.292070    1.787580
     13          1           0        2.510110   -0.316100    2.623130
     14          8           0        1.781950    1.775200   -0.611100
     15          1           0        1.913990    2.684420   -0.879110
 ---------------------------------------------------------------------
                    Distance matrix (angstroms):
                    1          2          3          4          5
     1  Zr   0.000000
     2  Si   3.569688   0.000000
     3  O    1.972227   1.627977   0.000000
     4  O    4.167159   1.653161   2.626916   0.000000
     5  O    4.573226   1.661813   2.692021   2.776578   0.000000
     6  O    4.510888   1.654613   2.766151   2.660239   2.633450
     7  H    4.464742   2.258409   2.809399   3.213954   0.963516
     8  H    4.962333   2.245039   3.234210   3.499020   2.690004
     9  H    5.096102   2.248818   3.498153   0.963614   3.135388
    10  O    1.936512   4.679994   3.166198   5.701407   5.452634
    11  H    2.884328   5.480456   4.038423   6.586184   6.177226
    12  O    1.937242   4.594468   3.161614   4.933509   5.173830
    13  H    2.882214   5.379685   4.038947   5.595260   5.824999
    14  O    1.929738   4.430562   3.192348   4.486158   5.822041
    15  H    2.884685   5.031058   3.976326   4.859416   6.520103
                    6          7          8          9         10
     6  O    0.000000
     7  H    3.496718   0.000000
     8  H    0.963796   3.562987   0.000000
     9  H    2.792161   3.705701   3.608900   0.000000
    10  O    5.204869   5.371936   5.354847   6.568582   0.000000
    11  H    5.844102   6.108611   5.885574   7.427270   0.956935
    12  O    5.921601   4.716963   6.366612   5.892838   3.177644
    13  H    6.786405   5.262687   7.234599   6.536327   3.986049
    14  O    5.079651   5.895755   5.735833   5.294666   3.169419
    15  H    5.546809   6.657833   6.267888   5.571896   4.019091
                   11         12         13         14         15
    11  H    0.000000
    12  O    3.985662   0.000000
    13  H    4.711486   0.957059   0.000000
    14  O    3.924189   3.177413   3.919693   0.000000
    15  H    4.693118   3.998454   4.650179   0.957050   0.000000
 Stoichiometry    H6O7SiZr
 Framework group  C1[X(H6O7SiZr)]
 Deg. of freedom    39
 Full point group                 C1      NOp   1
 Largest Abelian subgroup         C1      NOp   1
 Largest concise Abelian subgroup C1      NOp   1
                         Standard orientation:                         
 ---------------------------------------------------------------------
 Center     Atomic      Atomic             Coordinates (Angstroms)
 Number     Number       Type             X           Y           Z
 ---------------------------------------------------------------------
      1         40           0        1.382061   -0.011627   -0.010190
      2         14           0       -2.187542   -0.016748    0.013956
      3          8           0       -0.575894   -0.246704    0.018627
      4          8           0       -2.449635    1.459907    0.709469
      5          8           0       -2.938202   -1.271736    0.803346
      6          8           0       -2.879589    0.024189   -1.488422
      7          1           0       -2.467627   -1.639577    1.559398
      8          1           0       -3.157277   -0.828786   -1.840878
      9          1           0       -3.330729    1.831750    0.591327
     10          8           0        2.133674   -1.344394   -1.197157
     11          1           0        2.629600   -1.901216   -1.796933
     12          8           0        2.040860   -0.272532    1.792813
     13          1           0        2.505647   -0.291283    2.629223
     14          8           0        1.818353    1.759628   -0.639628
     15          1           0        1.967005    2.661822   -0.922284
 ---------------------------------------------------------------------
 Rotational constants (GHZ):           1.6289951           0.4743328           0.4715658
 General basis read from cards:  (5D, 7F)
 ======================================================================================================
                                       Pseudopotential Parameters
 ======================================================================================================
  Center     Atomic      Valence      Angular      Power
  Number     Number     Electrons     Momentum     of R      Exponent        Coefficient   SO-Coeffient
 ======================================================================================================
    1         40           12
                                      G and up 
                                                     2        1.0000000        0.00000000    0.00000000
                                      S - G
                                                     2        8.6365280      150.24299400    0.00000000
                                                     2        3.7176390       18.78003600    0.00000000
                                      P - G
                                                     2        7.6267280       33.19279100    0.00000000
                                                     2        7.4532070       66.38903900    0.00000000
                                                     2        3.3583890        4.62072600    0.00000000
                                                     2        3.2297380        9.26027000    0.00000000
                                      D - G
                                                     2        5.9380860       13.99338300    0.00000000
                                                     2        5.8255440       20.99588200    0.00000000
                                                     2        2.2050190        2.28516600    0.00000000
                                                     2        2.2062920        3.44126000    0.00000000
                                      F - G
                                                     2        4.8002150       -5.23932000    0.00000000
                                                     2        4.7989920       -6.98742400    0.00000000
    2         14
                                   No pseudopotential on this center.
    3          8
                                   No pseudopotential on this center.
    4          8
                                   No pseudopotential on this center.
    5          8
                                   No pseudopotential on this center.
    6          8
                                   No pseudopotential on this center.
    7          1
                                   No pseudopotential on this center.
    8          1
                                   No pseudopotential on this center.
    9          1
                                   No pseudopotential on this center.
   10          8
                                   No pseudopotential on this center.
   11          1
                                   No pseudopotential on this center.
   12          8
                                   No pseudopotential on this center.
   13          1
                                   No pseudopotential on this center.
   14          8
                                   No pseudopotential on this center.
   15          1
                                   No pseudopotential on this center.
 ======================================================================================================
 There are   300 symmetry adapted cartesian basis functions of A   symmetry.
 There are   266 symmetry adapted basis functions of A   symmetry.
   266 basis functions,   576 primitive gaussians,   300 cartesian basis functions
    44 alpha electrons       44 beta electrons
       nuclear repulsion energy       631.6171421604 Hartrees.
 NAtoms=   15 NActive=   15 NUniq=   15 SFac= 1.00D+00 NAtFMM=   60 NAOKFM=F Big=F
 Integral buffers will be    131072 words long.
 Raffenetti 2 integral format.
 Two-electron integral symmetry is turned on.
 Nuclear repulsion after empirical dispersion term =      631.6069353181 Hartrees.
 One-electron integrals computed using PRISM.
 PrsmSu:  requested number of processors reduced to:   4 ShMem   1 Linda.
   1 Symmetry operations used in ECPInt.
 ECPInt:  NShTT=    3321 NPrTT=   20810 LenC2=    3170 LenP2D=   14976.
 LDataN:  DoStor=T MaxTD1= 8 Len=  415
 NBasis=   266 RedAO= T EigKep=  1.02D-04  NBF=   266
 NBsUse=   266 1.00D-06 EigRej= -1.00D+00 NBFU=   266
 Defaulting to unpruned grid for atomic number  40.
 ExpMin= 1.01D-02 ExpMax= 1.61D+04 ExpMxC= 2.43D+03 IAcc=3 IRadAn=         5 AccDes= 0.00D+00
 Harris functional with IExCor=  402 and IRadAn=       5 diagonalized for initial guess.
 HarFok:  IExCor=  402 AccDes= 0.00D+00 IRadAn=         5 IDoV= 1 UseB2=F ITyADJ=14
 ICtDFT=  3500011 ScaDFX=  1.000000  1.000000  1.000000  1.000000
 Defaulting to unpruned grid for atomic number  40.
 FoFCou: FMM=F IPFlag=           0 FMFlag=      100000 FMFlg1=           0
         NFxFlg=           0 DoJE=T BraDBF=F KetDBF=T FulRan=T
         wScrn=  0.000000 ICntrl=       500 IOpCl=  0 I1Cent=   200000004 NGrid=           0
         NMat0=    1 NMatS0=      1 NMatT0=    0 NMatD0=    1 NMtDS0=    0 NMtDT0=    0
 Petite list used in FoFCou.
 Requested convergence on RMS density matrix=1.00D-08 within 128 cycles.
 Requested convergence on MAX density matrix=1.00D-06.
 Requested convergence on             energy=1.00D-06.
 No special actions if energy rises.
 Defaulting to unpruned grid for atomic number  40.
 Defaulting to unpruned grid for atomic number  40.
 Defaulting to unpruned grid for atomic number  40.
 Defaulting to unpruned grid for atomic number  40.
 Defaulting to unpruned grid for atomic number  40.
 Defaulting to unpruned grid for atomic number  40.
 Defaulting to unpruned grid for atomic number  40.
 Defaulting to unpruned grid for atomic number  40.
 Defaulting to unpruned grid for atomic number  40.
 Defaulting to unpruned grid for atomic number  40.
 Defaulting to unpruned grid for atomic number  40.
 Defaulting to unpruned grid for atomic number  40.
 Defaulting to unpruned grid for atomic number  40.
 Defaulting to unpruned grid for atomic number  40.
 Defaulting to unpruned grid for atomic number  40.
 Defaulting to unpruned grid for atomic number  40.
 SCF Done:  E(RB3LYP) =  -867.127844382     A.U. after   12 cycles
            NFock= 12  Conv=0.99D-08     -V/T= 2.0439

 **********************************************************************

            Population analysis using the SCF Density.

 **********************************************************************

 Orbital symmetries:
       Occupied  (A) (A) (A) (A) (A) (A) (A) (A) (A) (A) (A) (A)
                 (A) (A) (A) (A) (A) (A) (A) (A) (A) (A) (A) (A)
                 (A) (A) (A) (A) (A) (A) (A) (A) (A) (A) (A) (A)
                 (A) (A) (A) (A) (A) (A) (A) (A)
       Virtual   (A) (A) (A) (A) (A) (A) (A) (A) (A) (A) (A) (A)
                 (A) (A) (A) (A) (A) (A) (A) (A) (A) (A) (A) (A)
                 (A) (A) (A) (A) (A) (A) (A) (A) (A) (A) (A) (A)
                 (A) (A) (A) (A) (A) (A) (A) (A) (A) (A) (A) (A)
                 (A) (A) (A) (A) (A) (A) (A) (A) (A) (A) (A) (A)
                 (A) (A) (A) (A) (A) (A) (A) (A) (A) (A) (A) (A)
                 (A) (A) (A) (A) (A) (A) (A) (A) (A) (A) (A) (A)
                 (A) (A) (A) (A) (A) (A) (A) (A) (A) (A) (A) (A)
                 (A) (A) (A) (A) (A) (A) (A) (A) (A) (A) (A) (A)
                 (A) (A) (A) (A) (A) (A) (A) (A) (A) (A) (A) (A)
                 (A) (A) (A) (A) (A) (A) (A) (A) (A) (A) (A) (A)
                 (A) (A) (A) (A) (A) (A) (A) (A) (A) (A) (A) (A)
                 (A) (A) (A) (A) (A) (A) (A) (A) (A) (A) (A) (A)
                 (A) (A) (A) (A) (A) (A) (A) (A) (A) (A) (A) (A)
                 (A) (A) (A) (A) (A) (A) (A) (A) (A) (A) (A) (A)
                 (A) (A) (A) (A) (A) (A) (A) (A) (A) (A) (A) (A)
                 (A) (A) (A) (A) (A) (A) (A) (A) (A) (A) (A) (A)
                 (A) (A) (A) (A) (A) (A) (A) (A) (A) (A) (A) (A)
                 (A) (A) (A) (A) (A) (A)
 The electronic state is 1-A.
 Alpha  occ. eigenvalues --  -66.19949 -19.15198 -19.15147 -19.14903 -19.14407
 Alpha  occ. eigenvalues --  -19.14316 -19.14237 -19.13208  -5.34045  -3.70010
 Alpha  occ. eigenvalues --   -3.70004  -3.69965  -2.11242  -1.27548  -1.27446
 Alpha  occ. eigenvalues --   -1.27133  -1.02783  -0.99599  -0.99413  -0.96647
 Alpha  occ. eigenvalues --   -0.95444  -0.95384  -0.94111  -0.57462  -0.52268
 Alpha  occ. eigenvalues --   -0.51573  -0.50375  -0.49692  -0.49643  -0.45667
 Alpha  occ. eigenvalues --   -0.39582  -0.37786  -0.37254  -0.36062  -0.35641
 Alpha  occ. eigenvalues --   -0.34675  -0.34230  -0.33902  -0.32954  -0.32789
 Alpha  occ. eigenvalues --   -0.32058  -0.31309  -0.31210  -0.30667
 Alpha virt. eigenvalues --   -0.02933  -0.01298  -0.00734  -0.00566   0.00273
 Alpha virt. eigenvalues --    0.00365   0.01038   0.01256   0.01736   0.02328
 Alpha virt. eigenvalues --    0.02424   0.02950   0.03176   0.03283   0.03344
 Alpha virt. eigenvalues --    0.04254   0.04516   0.04609   0.05288   0.05766
 Alpha virt. eigenvalues --    0.06793   0.09104   0.09549   0.09818   0.10072
 Alpha virt. eigenvalues --    0.10147   0.11244   0.12489   0.13438   0.13767
 Alpha virt. eigenvalues --    0.14743   0.15436   0.15970   0.16295   0.17974
 Alpha virt. eigenvalues --    0.18334   0.18360   0.18982   0.19513   0.19895
 Alpha virt. eigenvalues --    0.20143   0.20348   0.21321   0.21685   0.22425
 Alpha virt. eigenvalues --    0.23212   0.24263   0.25073   0.26174   0.26456
 Alpha virt. eigenvalues --    0.27022   0.27412   0.27847   0.28399   0.28587
 Alpha virt. eigenvalues --    0.29204   0.29484   0.29571   0.29851   0.30649
 Alpha virt. eigenvalues --    0.31242   0.32868   0.34220   0.34616   0.35451
 Alpha virt. eigenvalues --    0.35658   0.36157   0.36979   0.37803   0.39021
 Alpha virt. eigenvalues --    0.41619   0.44059   0.44390   0.46574   0.47626
 Alpha virt. eigenvalues --    0.48187   0.49466   0.50713   0.51629   0.52622
 Alpha virt. eigenvalues --    0.55038   0.57285   0.58232   0.60208   0.60643
 Alpha virt. eigenvalues --    0.61493   0.62367   0.62902   0.64510   0.65167
 Alpha virt. eigenvalues --    0.66239   0.68119   0.69078   0.72482   0.73806
 Alpha virt. eigenvalues --    0.74618   0.76127   0.77300   0.78709   0.81528
 Alpha virt. eigenvalues --    0.85688   0.86159   0.96120   0.97770   0.98871
 Alpha virt. eigenvalues --    1.01715   1.02509   1.04646   1.05616   1.06529
 Alpha virt. eigenvalues --    1.07721   1.18612   1.19959   1.20565   1.21468
 Alpha virt. eigenvalues --    1.21553   1.22707   1.23415   1.23857   1.24382
 Alpha virt. eigenvalues --    1.25531   1.26344   1.28018   1.28584   1.28726
 Alpha virt. eigenvalues --    1.29023   1.30186   1.31222   1.31503   1.32945
 Alpha virt. eigenvalues --    1.33179   1.36709   1.42774   1.43545   1.45695
 Alpha virt. eigenvalues --    1.48869   1.53010   1.57458   1.59735   1.61106
 Alpha virt. eigenvalues --    1.62889   1.63107   1.63674   1.64365   1.67779
 Alpha virt. eigenvalues --    1.69371   1.71554   1.72322   1.72714   1.73041
 Alpha virt. eigenvalues --    1.73781   1.74127   1.74924   1.76593   1.77331
 Alpha virt. eigenvalues --    1.79259   1.80538   1.83069   1.83594   1.84526
 Alpha virt. eigenvalues --    1.86082   1.87904   1.90953   1.91267   1.92628
 Alpha virt. eigenvalues --    1.93062   1.94247   1.94987   1.95814   1.97080
 Alpha virt. eigenvalues --    1.99006   1.99398   2.00186   2.01722   2.06974
 Alpha virt. eigenvalues --    2.07298   2.08469   2.10103   2.14535   2.17620
 Alpha virt. eigenvalues --    2.20070   2.20186   2.21528   2.26570   2.31924
 Alpha virt. eigenvalues --    2.37542   2.41924   2.42365   2.43356   2.45118
 Alpha virt. eigenvalues --    2.50908   2.58522   2.59486   2.62546   2.63445
 Alpha virt. eigenvalues --    2.64758   2.66875   2.68303   2.68700   2.73073
 Alpha virt. eigenvalues --    2.78583   2.80400   2.80897   2.83758   2.87688
 Alpha virt. eigenvalues --    2.90335   2.91174   2.91443   2.92655   2.93921
 Alpha virt. eigenvalues --    3.01805   3.16952   3.46919   3.48360   3.51294
 Alpha virt. eigenvalues --    3.54500   3.57648   3.86866   4.13340   4.14753
 Alpha virt. eigenvalues --    4.18542  31.04389
          Condensed to atoms (all electrons):
               1          2          3          4          5          6
     1  Zr  10.435709   0.140849  -0.031595   0.002864  -0.076218  -0.042463
     2  Si   0.140849  12.914993  -0.693455  -0.068925  -0.131789   0.008202
     3  O   -0.031595  -0.693455   8.959679   0.112634   0.280403   0.101406
     4  O    0.002864  -0.068925   0.112634   8.564879  -0.029856   0.026112
     5  O   -0.076218  -0.131789   0.280403  -0.029856   8.528644   0.025158
     6  O   -0.042463   0.008202   0.101406   0.026112   0.025158   8.521653
     7  H   -0.003351   0.028021  -0.002042  -0.006479   0.242718   0.006505
     8  H    0.001381   0.061007  -0.021606   0.006602  -0.005665   0.232815
     9  H   -0.004426   0.036521   0.010240   0.223796  -0.005667  -0.005678
    10  O    0.032933  -0.013000  -0.025536   0.000616   0.000989   0.000979
    11  H   -0.087258   0.000753  -0.001112   0.000002   0.000002   0.000006
    12  O    0.037319  -0.013143  -0.026824   0.000105   0.001737   0.000262
    13  H   -0.086505   0.000778  -0.000863   0.000001   0.000003   0.000001
    14  O    0.026432  -0.019556  -0.026111   0.002345   0.000993  -0.000548
    15  H   -0.090463   0.001037  -0.000627   0.000070   0.000003   0.000009
               7          8          9         10         11         12
     1  Zr  -0.003351   0.001381  -0.004426   0.032933  -0.087258   0.037319
     2  Si   0.028021   0.061007   0.036521  -0.013000   0.000753  -0.013143
     3  O   -0.002042  -0.021606   0.010240  -0.025536  -0.001112  -0.026824
     4  O   -0.006479   0.006602   0.223796   0.000616   0.000002   0.000105
     5  O    0.242718  -0.005665  -0.005667   0.000989   0.000002   0.001737
     6  O    0.006505   0.232815  -0.005678   0.000979   0.000006   0.000262
     7  H    0.370611   0.000057   0.000092   0.000018   0.000000  -0.000067
     8  H    0.000057   0.358721   0.000059  -0.000009   0.000000  -0.000007
     9  H    0.000092   0.000059   0.369931  -0.000001  -0.000000  -0.000013
    10  O    0.000018  -0.000009  -0.000001   8.605195   0.326906  -0.032269
    11  H    0.000000   0.000000  -0.000000   0.326906   0.382346  -0.000802
    12  O   -0.000067  -0.000007  -0.000013  -0.032269  -0.000802   8.600654
    13  H   -0.000000  -0.000000  -0.000000  -0.000757  -0.000008   0.325704
    14  O   -0.000006   0.000008  -0.000062  -0.034474  -0.001323  -0.036957
    15  H    0.000000  -0.000000  -0.000000  -0.000683  -0.000008  -0.000947
              13         14         15
     1  Zr  -0.086505   0.026432  -0.090463
     2  Si   0.000778  -0.019556   0.001037
     3  O   -0.000863  -0.026111  -0.000627
     4  O    0.000001   0.002345   0.000070
     5  O    0.000003   0.000993   0.000003
     6  O    0.000001  -0.000548   0.000009
     7  H   -0.000000  -0.000006   0.000000
     8  H   -0.000000   0.000008  -0.000000
     9  H   -0.000000  -0.000062  -0.000000
    10  O   -0.000757  -0.034474  -0.000683
    11  H   -0.000008  -0.001323  -0.000008
    12  O    0.325704  -0.036957  -0.000947
    13  H    0.382219  -0.001475  -0.000011
    14  O   -0.001475   8.608701   0.331671
    15  H   -0.000011   0.331671   0.379091
 Mulliken charges:
               1
     1  Zr   1.744792
     2  Si   1.747707
     3  O   -0.634591
     4  O   -0.834766
     5  O   -0.831456
     6  O   -0.874421
     7  H    0.363922
     8  H    0.366638
     9  H    0.375207
    10  O   -0.860908
    11  H    0.380497
    12  O   -0.854753
    13  H    0.380912
    14  O   -0.849639
    15  H    0.380858
 Sum of Mulliken charges =  -0.00000
 Mulliken charges with hydrogens summed into heavy atoms:
               1
     1  Zr   1.744792
     2  Si   1.747707
     3  O   -0.634591
     4  O   -0.459559
     5  O   -0.467534
     6  O   -0.507783
    10  O   -0.480411
    12  O   -0.473841
    14  O   -0.468781
 Electronic spatial extent (au):  <R**2>=           2255.0293
 Charge=             -0.0000 electrons
 Dipole moment (field-independent basis, Debye):
    X=              1.8803    Y=             -0.6230    Z=              0.3018  Tot=              2.0037
 Quadrupole moment (field-independent basis, Debye-Ang):
   XX=            -68.9490   YY=            -68.2971   ZZ=            -68.0037
   XY=             -0.2818   XZ=             -0.0063   YZ=              0.6183
 Traceless Quadrupole moment (field-independent basis, Debye-Ang):
   XX=             -0.5324   YY=              0.1195   ZZ=              0.4129
   XY=             -0.2818   XZ=             -0.0063   YZ=              0.6183
 Octapole moment (field-independent basis, Debye-Ang**2):
  XXX=             49.5200  YYY=             13.5968  ZZZ=             14.0698  XYY=             20.6178
  XXY=              8.8045  XXZ=             -1.3692  XZZ=             29.3307  YZZ=            -18.5933
  YYZ=            -12.3675  XYZ=             -3.7171
 Hexadecapole moment (field-independent basis, Debye-Ang**3):
 XXXX=          -1902.0778 YYYY=           -356.7782 ZZZZ=           -349.6440 XXXY=           -101.3051
 XXXZ=             19.8065 YYYX=             10.3723 YYYZ=            -16.7048 ZZZX=             30.5722
 ZZZY=              6.8191 XXYY=           -334.6371 XXZZ=           -327.5935 YYZZ=           -112.1557
 XXYZ=             53.2303 YYXZ=            -34.9974 ZZXY=             16.7490
 N-N= 6.316069353181D+02 E-N=-3.300755550339D+03  KE= 8.306826954971D+02
 PrsmSu:  requested number of processors reduced to:   2 ShMem   1 Linda.
 PrsmSu:  requested number of processors reduced to:  10 ShMem   1 Linda.
   1 Symmetry operations used in ECPInt.
 ECPInt:  NShTT=    3321 NPrTT=   20810 LenC2=    3170 LenP2D=   14976.
 LDataN:  DoStor=T MaxTD1= 9 Len=  602
 Calling FoFJK, ICntrl=      2127 FMM=F ISym2X=0 I1Cent= 0 IOpClX= 0 NMat=1 NMatS=1 NMatT=0.
 CoulSu:  requested number of processors reduced to:  10 ShMem   1 Linda.
 Defaulting to unpruned grid for atomic number  40.
 Defaulting to unpruned grid for atomic number  40.
 Defaulting to unpruned grid for atomic number  40.
 Defaulting to unpruned grid for atomic number  40.
 Defaulting to unpruned grid for atomic number  40.
 Defaulting to unpruned grid for atomic number  40.
 Defaulting to unpruned grid for atomic number  40.
 Defaulting to unpruned grid for atomic number  40.
 Defaulting to unpruned grid for atomic number  40.
 Defaulting to unpruned grid for atomic number  40.
 Defaulting to unpruned grid for atomic number  40.
 Defaulting to unpruned grid for atomic number  40.
 Defaulting to unpruned grid for atomic number  40.
 Defaulting to unpruned grid for atomic number  40.
 Defaulting to unpruned grid for atomic number  40.
 Defaulting to unpruned grid for atomic number  40.
 ***** Axes restored to original set *****
 -------------------------------------------------------------------
 Center     Atomic                   Forces (Hartrees/Bohr)
 Number     Number              X              Y              Z
 -------------------------------------------------------------------
      1       40          -0.000424473   -0.000045326   -0.000039312
      2       14           0.000111422    0.000308776   -0.000002112
      3        8           0.000272451   -0.000127051    0.000038769
      4        8           0.000024418   -0.000098636   -0.000028574
      5        8          -0.000008995   -0.000077656    0.000016872
      6        8           0.000004359   -0.000037710    0.000008630
      7        1          -0.000025343    0.000019173    0.000011618
      8        1           0.000001584    0.000003727   -0.000003181
      9        1          -0.000002031   -0.000018387   -0.000001889
     10        8           0.000008748    0.000015837    0.000020255
     11        1           0.000004921   -0.000003261   -0.000006731
     12        8          -0.000007724   -0.000024269   -0.000014322
     13        1           0.000008494    0.000003819    0.000009908
     14        8           0.000030204    0.000085377    0.000002517
     15        1           0.000001965   -0.000004413   -0.000012448
 -------------------------------------------------------------------
 Cartesian Forces:  Max     0.000424473 RMS     0.000095943

 GradGradGradGradGradGradGradGradGradGradGradGradGradGradGradGradGradGrad
 Berny optimization.
 FormGI is forming the generalized inverse of G from B-inverse, IUseBI=4.
 Internal  Forces:  Max     0.000371769 RMS     0.000067483
 Search for a local minimum.
 Step number   1 out of a maximum of   66
 All quantities printed in internal units (Hartrees-Bohrs-Radians)
 Mixed Optimization -- En-DIIS/RFO-DIIS
 Second derivative matrix not updated -- first step.
 ITU=  0
     Eigenvalues ---    0.00230   0.01593   0.01596   0.01596   0.01597
     Eigenvalues ---    0.01598   0.01598   0.03156   0.03522   0.03617
     Eigenvalues ---    0.03636   0.07121   0.08321   0.08829   0.09681
     Eigenvalues ---    0.12575   0.16000   0.16000   0.16000   0.18826
     Eigenvalues ---    0.19478   0.20832   0.21482   0.21527   0.21945
     Eigenvalues ---    0.24998   0.25000   0.25000   0.40909   0.41958
     Eigenvalues ---    0.42174   0.46095   0.54665   0.54703   0.54724
     Eigenvalues ---    0.56111   0.56113   0.561381000.000001000.00000
     Eigenvalues --- 1000.000001000.000001000.000001000.000001000.00000
     Eigenvalues --- 1000.000001000.000001000.000001000.000001000.00000
     Eigenvalues --- 1000.000001000.000001000.000001000.000001000.00000
     Eigenvalues --- 1000.00000
 RFO step:  Lambda=-1.17524098D-06 EMin= 2.30000000D-03
 Linear search not attempted -- first point.
 Iteration  1 RMS(Cart)=  0.00207901 RMS(Int)=  0.00000093
 Iteration  2 RMS(Cart)=  0.00000160 RMS(Int)=  0.00000015
 Iteration  3 RMS(Cart)=  0.00000000 RMS(Int)=  0.00000015
 Iteration  1 RMS(Cart)=  0.00000021 RMS(Int)=  0.00000010
 Variable       Old X    -DE/DX   Delta X   Delta X   Delta X     New X
                                 (Linear)    (Quad)   (Total)
    R1        3.72697  -0.00037   0.00000  -0.00194  -0.00194   3.72503
    R2        3.65948  -0.00001   0.00000  -0.00005  -0.00005   3.65942
    R3        3.66086  -0.00000   0.00000  -0.00000  -0.00000   3.66086
    R4        3.64668   0.00008   0.00000   0.00038   0.00038   3.64706
    R5        3.07643  -0.00009   0.00000  -0.00018  -0.00018   3.07625
    R6        3.12402  -0.00012   0.00000  -0.00029  -0.00029   3.12373
    R7        3.14037   0.00007   0.00000   0.00018   0.00018   3.14055
    R8        3.12677  -0.00001   0.00000  -0.00002  -0.00002   3.12675
    R9        1.82097  -0.00000   0.00000  -0.00001  -0.00001   1.82096
   R10        1.82078  -0.00001   0.00000  -0.00002  -0.00002   1.82076
   R11        1.82131  -0.00000   0.00000  -0.00000  -0.00000   1.82131
   R12        1.80835   0.00001   0.00000   0.00002   0.00002   1.80836
   R13        1.80858   0.00001   0.00000   0.00002   0.00002   1.80860
   R14        1.80856  -0.00000   0.00000  -0.00000  -0.00000   1.80856
    A1        1.88835   0.00004   0.00000   0.00018   0.00018   1.88853
    A2        1.88384  -0.00003   0.00000  -0.00013  -0.00013   1.88371
    A3        1.91625   0.00006   0.00000   0.00022   0.00022   1.91647
    A4        1.92387  -0.00006   0.00000  -0.00022  -0.00022   1.92366
    A5        1.92200  -0.00001   0.00000  -0.00003  -0.00003   1.92197
    A6        1.92870   0.00001   0.00000  -0.00002  -0.00002   1.92868
    A7        0.14348   0.00011   0.00000   0.00000   0.00000   0.14349
    A8        1.85658   0.00003   0.00000   0.00020   0.00020   1.85678
    A9        1.91680   0.00000   0.00000  -0.00002  -0.00002   1.91679
   A10        2.00442  -0.00003   0.00000  -0.00013  -0.00013   2.00428
   A11        1.98570  -0.00002   0.00000  -0.00011  -0.00011   1.98559
   A12        1.86879   0.00005   0.00000   0.00022   0.00022   1.86901
   A13        1.83492  -0.00003   0.00000  -0.00017  -0.00017   1.83475
   A14        2.02424  -0.00003   0.00000  -0.00019  -0.00019   2.02405
   A15        2.02688   0.00001   0.00000   0.00008   0.00008   2.02696
   A16        2.01602   0.00001   0.00000   0.00004   0.00004   2.01606
   A17        2.88733  -0.00022   0.00000  -0.00030  -0.00030   2.88703
   A18        3.27127   0.00000   0.00000   0.00010   0.00010   3.27137
   A19        3.32872   0.00001   0.00000   0.00039   0.00039   3.32911
   A20        3.06197   0.00001   0.00000   0.00084   0.00084   3.06281
   A21        3.22274  -0.00002   0.00000  -0.00131  -0.00131   3.22144
   A22        3.02137  -0.00000   0.00000  -0.00004  -0.00004   3.02133
   A23        3.19960   0.00001   0.00000   0.00041   0.00041   3.20001
   A24        3.12522   0.00003   0.00000   0.00169   0.00169   3.12691
    D1       -2.85563   0.00000   0.00000   0.00219   0.00219  -2.85344
    D2        1.28400   0.00001   0.00000   0.00194   0.00194   1.28594
    D3       -0.87355   0.00000   0.00000   0.00249   0.00249  -0.87107
    D4        1.27557   0.00000   0.00000   0.00226   0.00226   1.27782
    D5       -0.86799   0.00000   0.00000   0.00200   0.00200  -0.86598
    D6       -3.02553  -0.00000   0.00000   0.00255   0.00255  -3.02298
    D7       -0.77916   0.00001   0.00000   0.00206   0.00206  -0.77710
    D8       -2.92272   0.00001   0.00000   0.00180   0.00180  -2.92091
    D9        1.20292   0.00001   0.00000   0.00235   0.00235   1.20527
   D10        2.89578   0.00000   0.00000   0.00010   0.00010   2.89588
   D11       -1.27481   0.00001   0.00000   0.00015   0.00015  -1.27466
   D12        0.74459  -0.00001   0.00000   0.00003   0.00003   0.74461
   D13        0.61661   0.00004   0.00000   0.00064   0.00064   0.61725
   D14       -1.46198   0.00002   0.00000   0.00047   0.00047  -1.46151
   D15        2.78200  -0.00001   0.00000   0.00037   0.00037   2.78237
   D16        1.54677  -0.00003   0.00000  -0.00023  -0.00023   1.54654
   D17       -2.67951   0.00002   0.00000   0.00010   0.00010  -2.67941
   D18       -0.56198   0.00000   0.00000  -0.00001  -0.00001  -0.56199
         Item               Value     Threshold  Converged?
 Maximum Force            0.000379     0.000450     YES
 RMS     Force            0.000060     0.000300     YES
 Maximum Displacement     0.005105     0.001800     NO 
 RMS     Displacement     0.002079     0.001200     NO 
 Predicted change in Energy=-5.875246D-07
 GradGradGradGradGradGradGradGradGradGradGradGradGradGradGradGradGradGrad

                          Input orientation:                          
 ---------------------------------------------------------------------
 Center     Atomic      Atomic             Coordinates (Angstroms)
 Number     Number       Type             X           Y           Z
 ---------------------------------------------------------------------
      1         40           0        1.377706   -0.013640   -0.009961
      2         14           0       -2.190072   -0.083284    0.017270
      3          8           0       -0.574638   -0.284223    0.017689
      4          8           0       -2.478475    1.377473    0.735220
      5          8           0       -2.917462   -1.363532    0.787857
      6          8           0       -2.883711   -0.032458   -1.484060
      7          1           0       -2.440097   -1.733992    1.538340
      8          1           0       -3.146067   -0.884954   -1.849189
      9          1           0       -3.366326    1.734802    0.623058
     10          8           0        2.151328   -1.312005   -1.220631
     11          1           0        2.656321   -1.849292   -1.830585
     12          8           0        2.044120   -0.293937    1.787324
     13          1           0        2.510868   -0.318527    2.622505
     14          8           0        1.781442    1.775920   -0.609250
     15          1           0        1.913873    2.684829   -0.878117
 ---------------------------------------------------------------------
                    Distance matrix (angstroms):
                    1          2          3          4          5
     1  Zr   0.000000
     2  Si   3.568563   0.000000
     3  O    1.971200   1.627884   0.000000
     4  O    4.166608   1.653009   2.626915   0.000000
     5  O    4.572439   1.661907   2.692005   2.776435   0.000000
     6  O    4.509213   1.654603   2.765946   2.660325   2.633345
     7  H    4.464579   2.258540   2.809652   3.213672   0.963505
     8  H    4.960492   2.245054   3.233938   3.499060   2.689854
     9  H    5.095449   2.248553   3.498065   0.963610   3.135014
    10  O    1.936483   4.678665   3.165542   5.700326   5.452459
    11  H    2.884294   5.479131   4.037902   6.584945   6.177318
    12  O    1.937242   4.594111   3.160632   4.935018   5.173033
    13  H    2.882166   5.379723   4.038141   5.597481   5.824494
    14  O    1.929942   4.429683   3.191920   4.484780   5.821320
    15  H    2.884944   5.030560   3.976233   4.858473   6.519701
                    6          7          8          9         10
     6  O    0.000000
     7  H    3.496701   0.000000
     8  H    0.963794   3.562950   0.000000
     9  H    2.792145   3.705155   3.608828   0.000000
    10  O    5.201755   5.373190   5.351621   6.567094   0.000000
    11  H    5.840627   6.110354   5.882006   7.425522   0.956943
    12  O    5.920629   4.716349   6.364870   5.894423   3.177380
    13  H    6.785808   5.262224   7.233104   6.538757   3.985719
    14  O    5.079289   5.895169   5.735682   5.293372   3.169524
    15  H    5.546858   6.657499   6.268120   5.571048   4.018506
                   11         12         13         14         15
    11  H    0.000000
    12  O    3.985371   0.000000
    13  H    4.711094   0.957071   0.000000
    14  O    3.924186   3.177558   3.919568   0.000000
    15  H    4.692194   3.999323   4.650903   0.957049   0.000000
 Stoichiometry    H6O7SiZr
 Framework group  C1[X(H6O7SiZr)]
 Deg. of freedom    39
 Full point group                 C1      NOp   1
 Largest Abelian subgroup         C1      NOp   1
 Largest concise Abelian subgroup C1      NOp   1
                         Standard orientation:                         
 ---------------------------------------------------------------------
 Center     Atomic      Atomic             Coordinates (Angstroms)
 Number     Number       Type             X           Y           Z
 ---------------------------------------------------------------------
      1         40           0        1.381556   -0.011608   -0.010151
      2         14           0       -2.186922   -0.016602    0.013980
      3          8           0       -0.575372   -0.246582    0.018954
      4          8           0       -2.449583    1.458726    0.711730
      5          8           0       -2.937955   -1.272960    0.801032
      6          8           0       -2.878198    0.026321   -1.488686
      7          1           0       -2.468011   -1.641733    1.557009
      8          1           0       -3.155553   -0.826190   -1.842519
      9          1           0       -3.330749    1.830434    0.593728
     10          8           0        2.132723   -1.340016   -1.202227
     11          1           0        2.628490   -1.894544   -1.804268
     12          8           0        2.041212   -0.279435    1.791523
     13          1           0        2.506698   -0.301085    2.627489
     14          8           0        1.818016    1.762087   -0.633193
     15          1           0        1.967048    2.664730   -0.914209
 ---------------------------------------------------------------------
 Rotational constants (GHZ):           1.6290007           0.4745278           0.4717578
 Basis read from rwf:  (5D, 7F)
 Pseudo-potential data read from rwf file.
 There are   300 symmetry adapted cartesian basis functions of A   symmetry.
 There are   266 symmetry adapted basis functions of A   symmetry.
   266 basis functions,   576 primitive gaussians,   300 cartesian basis functions
    44 alpha electrons       44 beta electrons
       nuclear repulsion energy       631.6754216135 Hartrees.
 NAtoms=   15 NActive=   15 NUniq=   15 SFac= 1.00D+00 NAtFMM=   60 NAOKFM=F Big=F
 Integral buffers will be    131072 words long.
 Raffenetti 2 integral format.
 Two-electron integral symmetry is turned on.
 Nuclear repulsion after empirical dispersion term =      631.6652135962 Hartrees.
 One-electron integrals computed using PRISM.
 PrsmSu:  requested number of processors reduced to:   4 ShMem   1 Linda.
   1 Symmetry operations used in ECPInt.
 ECPInt:  NShTT=    3321 NPrTT=   20810 LenC2=    3170 LenP2D=   14976.
 LDataN:  DoStor=T MaxTD1= 8 Len=  415
 NBasis=   266 RedAO= T EigKep=  1.02D-04  NBF=   266
 NBsUse=   266 1.00D-06 EigRej= -1.00D+00 NBFU=   266
 Defaulting to unpruned grid for atomic number  40.
 Initial guess from the checkpoint file:  "/localscratch/sarashs.35132320.0/Gau-5901.chk"
 B after Tr=     0.000000   -0.000000    0.000000
         Rot=    0.999999   -0.001409   -0.000005    0.000006 Ang=  -0.16 deg.
 Requested convergence on RMS density matrix=1.00D-08 within 128 cycles.
 Requested convergence on MAX density matrix=1.00D-06.
 Requested convergence on             energy=1.00D-06.
 No special actions if energy rises.
 Defaulting to unpruned grid for atomic number  40.
 Defaulting to unpruned grid for atomic number  40.
 Defaulting to unpruned grid for atomic number  40.
 Defaulting to unpruned grid for atomic number  40.
 Defaulting to unpruned grid for atomic number  40.
 Defaulting to unpruned grid for atomic number  40.
 Defaulting to unpruned grid for atomic number  40.
 Defaulting to unpruned grid for atomic number  40.
 Defaulting to unpruned grid for atomic number  40.
 Defaulting to unpruned grid for atomic number  40.
 Defaulting to unpruned grid for atomic number  40.
 Defaulting to unpruned grid for atomic number  40.
 Defaulting to unpruned grid for atomic number  40.
 Defaulting to unpruned grid for atomic number  40.
 Defaulting to unpruned grid for atomic number  40.
 Defaulting to unpruned grid for atomic number  40.
 SCF Done:  E(RB3LYP) =  -867.127845184     A.U. after    8 cycles
            NFock=  8  Conv=0.27D-08     -V/T= 2.0439
 PrsmSu:  requested number of processors reduced to:   2 ShMem   1 Linda.
 PrsmSu:  requested number of processors reduced to:  10 ShMem   1 Linda.
   1 Symmetry operations used in ECPInt.
 ECPInt:  NShTT=    3321 NPrTT=   20810 LenC2=    3170 LenP2D=   14976.
 LDataN:  DoStor=T MaxTD1= 9 Len=  602
 Calling FoFJK, ICntrl=      2127 FMM=F ISym2X=0 I1Cent= 0 IOpClX= 0 NMat=1 NMatS=1 NMatT=0.
 CoulSu:  requested number of processors reduced to:  10 ShMem   1 Linda.
 Defaulting to unpruned grid for atomic number  40.
 Defaulting to unpruned grid for atomic number  40.
 Defaulting to unpruned grid for atomic number  40.
 Defaulting to unpruned grid for atomic number  40.
 Defaulting to unpruned grid for atomic number  40.
 Defaulting to unpruned grid for atomic number  40.
 Defaulting to unpruned grid for atomic number  40.
 Defaulting to unpruned grid for atomic number  40.
 Defaulting to unpruned grid for atomic number  40.
 Defaulting to unpruned grid for atomic number  40.
 Defaulting to unpruned grid for atomic number  40.
 Defaulting to unpruned grid for atomic number  40.
 Defaulting to unpruned grid for atomic number  40.
 Defaulting to unpruned grid for atomic number  40.
 Defaulting to unpruned grid for atomic number  40.
 Defaulting to unpruned grid for atomic number  40.
 ***** Axes restored to original set *****
 -------------------------------------------------------------------
 Center     Atomic                   Forces (Hartrees/Bohr)
 Number     Number              X              Y              Z
 -------------------------------------------------------------------
      1       40           0.000031318    0.000094520   -0.000060238
      2       14          -0.000035976    0.000165923   -0.000010414
      3        8          -0.000045606   -0.000165106    0.000040636
      4        8           0.000025553   -0.000042700   -0.000017047
      5        8           0.000016234   -0.000034757   -0.000011953
      6        8           0.000011518   -0.000014819    0.000008877
      7        1          -0.000018815    0.000014732    0.000021830
      8        1           0.000001221    0.000002208   -0.000000005
      9        1          -0.000006733   -0.000003945    0.000004437
     10        8           0.000015326   -0.000014496   -0.000016397
     11        1          -0.000002381   -0.000000317    0.000000655
     12        8           0.000001620   -0.000025877    0.000034197
     13        1           0.000001821    0.000003813   -0.000003304
     14        8           0.000006710    0.000028848    0.000014848
     15        1          -0.000001810   -0.000008029   -0.000006123
 -------------------------------------------------------------------
 Cartesian Forces:  Max     0.000165923 RMS     0.000043001

 GradGradGradGradGradGradGradGradGradGradGradGradGradGradGradGradGradGrad
 Berny optimization.
 Using GEDIIS/GDIIS optimizer.
 FormGI is forming the generalized inverse of G from B-inverse, IUseBI=4.
 Internal  Forces:  Max     0.000187809 RMS     0.000033748
 Search for a local minimum.
 Step number   2 out of a maximum of   66
 All quantities printed in internal units (Hartrees-Bohrs-Radians)
 Mixed Optimization -- En-DIIS/RFO-DIIS
 Swapping is turned off.
 Update second derivatives using D2CorX and points    1    2
 DE= -8.02D-07 DEPred=-5.88D-07 R= 1.36D+00
 Trust test= 1.36D+00 RLast= 7.37D-03 DXMaxT set to 3.00D-01
 ITU=  0  0
     Eigenvalues ---    0.00190   0.01459   0.01596   0.01596   0.01597
     Eigenvalues ---    0.01598   0.01601   0.02846   0.03451   0.03617
     Eigenvalues ---    0.03634   0.07107   0.08319   0.08663   0.09599
     Eigenvalues ---    0.12596   0.15942   0.16000   0.16005   0.18596
     Eigenvalues ---    0.20803   0.21027   0.21511   0.21820   0.24535
     Eigenvalues ---    0.24847   0.24999   0.27348   0.40595   0.41629
     Eigenvalues ---    0.41984   0.46993   0.54665   0.54709   0.54737
     Eigenvalues ---    0.56108   0.56125   0.561521000.000001000.00000
     Eigenvalues --- 1000.000001000.000001000.000001000.000001000.00000
     Eigenvalues --- 1000.000001000.000001000.000001000.000001000.00000
     Eigenvalues --- 1000.000001000.000001000.000001000.000001000.00000
     Eigenvalues --- 1000.00000
 En-DIIS/RFO-DIIS/Sim-DIIS IScMMF=       -3 using points:     2    1
 RFO step:  Lambda=-3.66159821D-07.
 DidBck=F Rises=F RFO-DIIS coefs:    2.31949   -1.31949
 Iteration  1 RMS(Cart)=  0.00293313 RMS(Int)=  0.00000185
 Iteration  2 RMS(Cart)=  0.00000300 RMS(Int)=  0.00000046
 Iteration  3 RMS(Cart)=  0.00000000 RMS(Int)=  0.00000046
 Iteration  1 RMS(Cart)=  0.00000107 RMS(Int)=  0.00000051
 Iteration  2 RMS(Cart)=  0.00000085 RMS(Int)=  0.00000055
 Variable       Old X    -DE/DX   Delta X   Delta X   Delta X     New X
                                 (Linear)    (Quad)   (Total)
    R1        3.72503   0.00006  -0.00256   0.00234  -0.00022   3.72480
    R2        3.65942   0.00002  -0.00007   0.00019   0.00012   3.65954
    R3        3.66086   0.00003  -0.00000   0.00019   0.00018   3.66104
    R4        3.64706   0.00002   0.00051  -0.00031   0.00020   3.64726
    R5        3.07625   0.00002  -0.00023   0.00025   0.00002   3.07627
    R6        3.12373  -0.00005  -0.00038   0.00016  -0.00022   3.12351
    R7        3.14055   0.00002   0.00023  -0.00012   0.00011   3.14066
    R8        3.12675  -0.00001  -0.00003  -0.00002  -0.00004   3.12670
    R9        1.82096   0.00000  -0.00001   0.00002   0.00001   1.82097
   R10        1.82076   0.00000  -0.00003   0.00002  -0.00000   1.82076
   R11        1.82131  -0.00000  -0.00000   0.00000  -0.00000   1.82130
   R12        1.80836  -0.00000   0.00002  -0.00002   0.00000   1.80836
   R13        1.80860  -0.00000   0.00003  -0.00003   0.00000   1.80860
   R14        1.80856  -0.00001  -0.00000  -0.00001  -0.00001   1.80855
    A1        1.88853   0.00001   0.00023  -0.00014   0.00009   1.88862
    A2        1.88371  -0.00004  -0.00017  -0.00005  -0.00022   1.88350
    A3        1.91647   0.00002   0.00030  -0.00014   0.00016   1.91663
    A4        1.92366  -0.00002  -0.00029   0.00014  -0.00014   1.92351
    A5        1.92197   0.00001  -0.00005   0.00011   0.00006   1.92203
    A6        1.92868   0.00002  -0.00003   0.00007   0.00005   1.92872
    A7        0.14349   0.00010   0.00000   0.00000   0.00000   0.14349
    A8        1.85678   0.00001   0.00026  -0.00018   0.00008   1.85687
    A9        1.91679   0.00000  -0.00002   0.00002  -0.00000   1.91679
   A10        2.00428  -0.00002  -0.00018   0.00000  -0.00017   2.00411
   A11        1.98559  -0.00001  -0.00014   0.00009  -0.00005   1.98554
   A12        1.86901   0.00004   0.00029  -0.00009   0.00020   1.86921
   A13        1.83475  -0.00002  -0.00022   0.00015  -0.00007   1.83468
   A14        2.02405  -0.00001  -0.00025   0.00016  -0.00009   2.02396
   A15        2.02696   0.00001   0.00011   0.00001   0.00011   2.02707
   A16        2.01606   0.00000   0.00005  -0.00004   0.00002   2.01608
   A17        2.88703  -0.00019  -0.00040   0.00006  -0.00033   2.88670
   A18        3.27137  -0.00000   0.00013  -0.00022  -0.00009   3.27128
   A19        3.32911   0.00001   0.00051   0.00012   0.00063   3.32973
   A20        3.06281   0.00001   0.00111  -0.00047   0.00064   3.06345
   A21        3.22144  -0.00002  -0.00173  -0.00004  -0.00176   3.21967
   A22        3.02133   0.00000  -0.00006   0.00035   0.00029   3.02162
   A23        3.20001   0.00001   0.00054  -0.00000   0.00054   3.20055
   A24        3.12691   0.00002   0.00223  -0.00030   0.00193   3.12883
    D1       -2.85344   0.00001   0.00289   0.00037   0.00326  -2.85018
    D2        1.28594   0.00001   0.00256   0.00041   0.00296   1.28890
    D3       -0.87107  -0.00000   0.00328   0.00016   0.00344  -0.86763
    D4        1.27782   0.00001   0.00298   0.00037   0.00335   1.28117
    D5       -0.86598   0.00001   0.00264   0.00041   0.00305  -0.86293
    D6       -3.02298  -0.00001   0.00336   0.00016   0.00352  -3.01946
    D7       -0.77710   0.00001   0.00272   0.00036   0.00307  -0.77403
    D8       -2.92091   0.00001   0.00238   0.00039   0.00277  -2.91814
    D9        1.20527  -0.00000   0.00310   0.00015   0.00325   1.20852
   D10        2.89588   0.00000   0.00013  -0.00002   0.00011   2.89599
   D11       -1.27466   0.00000   0.00020  -0.00006   0.00014  -1.27452
   D12        0.74461   0.00000   0.00003   0.00012   0.00015   0.74476
   D13        0.61725   0.00003   0.00085  -0.00001   0.00084   0.61809
   D14       -1.46151   0.00003   0.00062   0.00014   0.00076  -1.46075
   D15        2.78237  -0.00000   0.00048   0.00010   0.00059   2.78295
   D16        1.54654  -0.00002  -0.00030   0.00016  -0.00014   1.54641
   D17       -2.67941   0.00001   0.00013  -0.00012   0.00001  -2.67941
   D18       -0.56199   0.00001  -0.00001   0.00002   0.00002  -0.56197
         Item               Value     Threshold  Converged?
 Maximum Force            0.000055     0.000450     YES
 RMS     Force            0.000017     0.000300     YES
 Maximum Displacement     0.007419     0.001800     NO 
 RMS     Displacement     0.002933     0.001200     NO 
 Predicted change in Energy=-1.832876D-07
 GradGradGradGradGradGradGradGradGradGradGradGradGradGradGradGradGradGrad

                          Input orientation:                          
 ---------------------------------------------------------------------
 Center     Atomic      Atomic             Coordinates (Angstroms)
 Number     Number       Type             X           Y           Z
 ---------------------------------------------------------------------
      1         40           0        1.377612   -0.013504   -0.009531
      2         14           0       -2.190059   -0.083187    0.017316
      3          8           0       -0.574605   -0.284043    0.019112
      4          8           0       -2.479109    1.378672    0.732484
      5          8           0       -2.917899   -1.362180    0.789687
      6          8           0       -2.882518   -0.035338   -1.484632
      7          1           0       -2.441413   -1.730922    1.541571
      8          1           0       -3.144440   -0.888563   -1.848359
      9          1           0       -3.366984    1.735578    0.619133
     10          8           0        2.150566   -1.310427   -1.222271
     11          1           0        2.655062   -1.847092   -1.833185
     12          8           0        2.044931   -0.296485    1.787103
     13          1           0        2.512570   -0.321874    2.621762
     14          8           0        1.781311    1.776927   -0.606582
     15          1           0        1.913784    2.685619   -0.876136
 ---------------------------------------------------------------------
                    Distance matrix (angstroms):
                    1          2          3          4          5
     1  Zr   0.000000
     2  Si   3.568453   0.000000
     3  O    1.971082   1.627894   0.000000
     4  O    4.166898   1.652891   2.626911   0.000000
     5  O    4.572646   1.661966   2.692061   2.776343   0.000000
     6  O    4.508338   1.654580   2.765784   2.660408   2.633304
     7  H    4.465467   2.258664   2.810038   3.213350   0.963504
     8  H    4.959433   2.245042   3.233720   3.499111   2.689781
     9  H    5.095655   2.248386   3.498039   0.963614   3.134784
    10  O    1.936545   4.678004   3.165604   5.699668   5.453438
    11  H    2.884378   5.478221   4.037929   6.583914   6.178388
    12  O    1.937339   4.594865   3.160366   4.938149   5.173028
    13  H    2.882173   5.380970   4.038053   5.601615   5.824837
    14  O    1.930048   4.429566   3.192089   4.483624   5.821180
    15  H    2.885091   5.030514   3.976486   4.857291   6.519570
                    6          7          8          9         10
     6  O    0.000000
     7  H    3.496783   0.000000
     8  H    0.963791   3.563067   0.000000
     9  H    2.792253   3.704619   3.608900   0.000000
    10  O    5.198713   5.376049   5.348555   6.565994   0.000000
    11  H    5.836842   6.113634   5.878199   7.423909   0.956943
    12  O    5.920490   4.716479   6.363702   5.897649   3.177352
    13  H    6.786129   5.262526   7.232212   6.543148   3.985584
    14  O    5.080017   5.894995   5.736712   5.292356   3.169729
    15  H    5.547827   6.657243   6.269419   5.570002   4.017992
                   11         12         13         14         15
    11  H    0.000000
    12  O    3.985363   0.000000
    13  H    4.710961   0.957073   0.000000
    14  O    3.924476   3.177776   3.919428   0.000000
    15  H    4.691578   4.000373   4.651758   0.957042   0.000000
 Stoichiometry    H6O7SiZr
 Framework group  C1[X(H6O7SiZr)]
 Deg. of freedom    39
 Full point group                 C1      NOp   1
 Largest Abelian subgroup         C1      NOp   1
 Largest concise Abelian subgroup C1      NOp   1
                         Standard orientation:                         
 ---------------------------------------------------------------------
 Center     Atomic      Atomic             Coordinates (Angstroms)
 Number     Number       Type             X           Y           Z
 ---------------------------------------------------------------------
      1         40           0        1.381487   -0.011556   -0.010109
      2         14           0       -2.186881   -0.016491    0.014037
      3          8           0       -0.575322   -0.246464    0.019548
      4          8           0       -2.450015    1.457952    0.713200
      5          8           0       -2.938312   -1.273754    0.799383
      6          8           0       -2.877202    0.027718   -1.489006
      7          1           0       -2.469149   -1.642943    1.555640
      8          1           0       -3.154220   -0.824496   -1.843811
      9          1           0       -3.331207    1.829599    0.595168
     10          8           0        2.131811   -1.335187   -1.208118
     11          1           0        2.626997   -1.887410   -1.812751
     12          8           0        2.042195   -0.287225    1.790100
     13          1           0        2.508655   -0.312086    2.625436
     14          8           0        1.817939    1.764772   -0.625947
     15          1           0        1.967021    2.667973   -0.905107
 ---------------------------------------------------------------------
 Rotational constants (GHZ):           1.6289009           0.4745434           0.4717757
 Basis read from rwf:  (5D, 7F)
 Pseudo-potential data read from rwf file.
 There are   300 symmetry adapted cartesian basis functions of A   symmetry.
 There are   266 symmetry adapted basis functions of A   symmetry.
   266 basis functions,   576 primitive gaussians,   300 cartesian basis functions
    44 alpha electrons       44 beta electrons
       nuclear repulsion energy       631.6757600003 Hartrees.
 NAtoms=   15 NActive=   15 NUniq=   15 SFac= 1.00D+00 NAtFMM=   60 NAOKFM=F Big=F
 Integral buffers will be    131072 words long.
 Raffenetti 2 integral format.
 Two-electron integral symmetry is turned on.
 Nuclear repulsion after empirical dispersion term =      631.6655520918 Hartrees.
 One-electron integrals computed using PRISM.
 PrsmSu:  requested number of processors reduced to:   4 ShMem   1 Linda.
   1 Symmetry operations used in ECPInt.
 ECPInt:  NShTT=    3321 NPrTT=   20810 LenC2=    3170 LenP2D=   14977.
 LDataN:  DoStor=T MaxTD1= 8 Len=  415
 NBasis=   266 RedAO= T EigKep=  1.02D-04  NBF=   266
 NBsUse=   266 1.00D-06 EigRej= -1.00D+00 NBFU=   266
 Defaulting to unpruned grid for atomic number  40.
 Initial guess from the checkpoint file:  "/localscratch/sarashs.35132320.0/Gau-5901.chk"
 B after Tr=     0.000000   -0.000000   -0.000000
         Rot=    0.999999   -0.001439   -0.000018    0.000013 Ang=  -0.16 deg.
 Requested convergence on RMS density matrix=1.00D-08 within 128 cycles.
 Requested convergence on MAX density matrix=1.00D-06.
 Requested convergence on             energy=1.00D-06.
 No special actions if energy rises.
 Defaulting to unpruned grid for atomic number  40.
 Defaulting to unpruned grid for atomic number  40.
 Defaulting to unpruned grid for atomic number  40.
 Defaulting to unpruned grid for atomic number  40.
 Defaulting to unpruned grid for atomic number  40.
 Defaulting to unpruned grid for atomic number  40.
 Defaulting to unpruned grid for atomic number  40.
 Defaulting to unpruned grid for atomic number  40.
 Defaulting to unpruned grid for atomic number  40.
 Defaulting to unpruned grid for atomic number  40.
 Defaulting to unpruned grid for atomic number  40.
 Defaulting to unpruned grid for atomic number  40.
 Defaulting to unpruned grid for atomic number  40.
 Defaulting to unpruned grid for atomic number  40.
 Defaulting to unpruned grid for atomic number  40.
 Defaulting to unpruned grid for atomic number  40.
 SCF Done:  E(RB3LYP) =  -867.127845637     A.U. after    7 cycles
            NFock=  7  Conv=0.86D-08     -V/T= 2.0439
 PrsmSu:  requested number of processors reduced to:   2 ShMem   1 Linda.
 PrsmSu:  requested number of processors reduced to:  10 ShMem   1 Linda.
   1 Symmetry operations used in ECPInt.
 ECPInt:  NShTT=    3321 NPrTT=   20810 LenC2=    3170 LenP2D=   14977.
 LDataN:  DoStor=T MaxTD1= 9 Len=  602
 Calling FoFJK, ICntrl=      2127 FMM=F ISym2X=0 I1Cent= 0 IOpClX= 0 NMat=1 NMatS=1 NMatT=0.
 CoulSu:  requested number of processors reduced to:  10 ShMem   1 Linda.
 Defaulting to unpruned grid for atomic number  40.
 Defaulting to unpruned grid for atomic number  40.
 Defaulting to unpruned grid for atomic number  40.
 Defaulting to unpruned grid for atomic number  40.
 Defaulting to unpruned grid for atomic number  40.
 Defaulting to unpruned grid for atomic number  40.
 Defaulting to unpruned grid for atomic number  40.
 Defaulting to unpruned grid for atomic number  40.
 Defaulting to unpruned grid for atomic number  40.
 Defaulting to unpruned grid for atomic number  40.
 Defaulting to unpruned grid for atomic number  40.
 Defaulting to unpruned grid for atomic number  40.
 Defaulting to unpruned grid for atomic number  40.
 Defaulting to unpruned grid for atomic number  40.
 Defaulting to unpruned grid for atomic number  40.
 Defaulting to unpruned grid for atomic number  40.
 ***** Axes restored to original set *****
 -------------------------------------------------------------------
 Center     Atomic                   Forces (Hartrees/Bohr)
 Number     Number              X              Y              Z
 -------------------------------------------------------------------
      1       40           0.000116495    0.000103220   -0.000052219
      2       14          -0.000028878    0.000056015   -0.000011367
      3        8          -0.000076682   -0.000154070    0.000037950
      4        8           0.000006467    0.000011155   -0.000004720
      5        8           0.000024280   -0.000009672   -0.000026718
      6        8           0.000001433   -0.000000354    0.000001328
      7        1          -0.000013804    0.000016980    0.000020181
      8        1           0.000000319    0.000000764    0.000000960
      9        1          -0.000003732    0.000002504    0.000009914
     10        8          -0.000003892    0.000014634    0.000001539
     11        1          -0.000003587   -0.000000580    0.000002138
     12        8          -0.000011250   -0.000014126    0.000001324
     13        1           0.000002740    0.000004290   -0.000004547
     14        8          -0.000007828   -0.000029866    0.000027232
     15        1          -0.000002079   -0.000000894   -0.000002994
 -------------------------------------------------------------------
 Cartesian Forces:  Max     0.000154070 RMS     0.000038598

 GradGradGradGradGradGradGradGradGradGradGradGradGradGradGradGradGradGrad
 Berny optimization.
 Using GEDIIS/GDIIS optimizer.
 FormGI is forming the generalized inverse of G from B-inverse, IUseBI=4.
 Internal  Forces:  Max     0.000170279 RMS     0.000031585
 Search for a local minimum.
 Step number   3 out of a maximum of   66
 All quantities printed in internal units (Hartrees-Bohrs-Radians)
 Mixed Optimization -- En-DIIS/RFO-DIIS
 Swapping is turned off.
 Update second derivatives using D2CorX and points    1    2    3
 DE= -4.53D-07 DEPred=-1.83D-07 R= 2.47D+00
 Trust test= 2.47D+00 RLast= 1.01D-02 DXMaxT set to 3.00D-01
 ITU=  0  0  0
     Eigenvalues ---    0.00054   0.01251   0.01596   0.01597   0.01598
     Eigenvalues ---    0.01598   0.01633   0.02440   0.03415   0.03617
     Eigenvalues ---    0.03634   0.07263   0.08325   0.08687   0.09537
     Eigenvalues ---    0.12597   0.15990   0.16000   0.16106   0.18715
     Eigenvalues ---    0.20821   0.21474   0.21655   0.23865   0.24723
     Eigenvalues ---    0.24990   0.25009   0.31863   0.41217   0.41973
     Eigenvalues ---    0.45548   0.51627   0.54666   0.54706   0.54766
     Eigenvalues ---    0.56122   0.56135   0.562341000.000001000.00000
     Eigenvalues --- 1000.000001000.000001000.000001000.000001000.00000
     Eigenvalues --- 1000.000001000.000001000.000001000.000001000.00000
     Eigenvalues --- 1000.000001000.000001000.000001000.000001000.00000
     Eigenvalues --- 1000.00000
 En-DIIS/RFO-DIIS/Sim-DIIS IScMMF=       -3 using points:     3    2    1
 RFO step:  Lambda=-1.22943407D-06.
 DIIS inversion failure, remove point   3.
 RFO-DIIS uses    2 points instead of    3
 DidBck=F Rises=F RFO-DIIS coefs:    3.00000   -2.00000    0.00000
 Iteration  1 RMS(Cart)=  0.01306486 RMS(Int)=  0.00003518
 Iteration  2 RMS(Cart)=  0.00005747 RMS(Int)=  0.00000524
 Iteration  3 RMS(Cart)=  0.00000000 RMS(Int)=  0.00000524
 Iteration  1 RMS(Cart)=  0.00000939 RMS(Int)=  0.00000447
 Iteration  2 RMS(Cart)=  0.00000744 RMS(Int)=  0.00000483
 Iteration  3 RMS(Cart)=  0.00000590 RMS(Int)=  0.00000553
 Iteration  4 RMS(Cart)=  0.00000468 RMS(Int)=  0.00000627
 Iteration  5 RMS(Cart)=  0.00000371 RMS(Int)=  0.00000693
 Iteration  6 RMS(Cart)=  0.00000294 RMS(Int)=  0.00000749
 Iteration  7 RMS(Cart)=  0.00000233 RMS(Int)=  0.00000795
 Iteration  8 RMS(Cart)=  0.00000185 RMS(Int)=  0.00000833
 Iteration  9 RMS(Cart)=  0.00000146 RMS(Int)=  0.00000863
 Iteration 10 RMS(Cart)=  0.00000116 RMS(Int)=  0.00000888
 Iteration 11 RMS(Cart)=  0.00000092 RMS(Int)=  0.00000907
 Variable       Old X    -DE/DX   Delta X   Delta X   Delta X     New X
                                 (Linear)    (Quad)   (Total)
    R1        3.72480   0.00010  -0.00045  -0.00008  -0.00052   3.72428
    R2        3.65954  -0.00002   0.00024  -0.00030  -0.00006   3.65948
    R3        3.66104  -0.00000   0.00037  -0.00011   0.00026   3.66130
    R4        3.64726  -0.00004   0.00040  -0.00029   0.00012   3.64738
    R5        3.07627   0.00003   0.00004   0.00007   0.00011   3.07639
    R6        3.12351   0.00001  -0.00045  -0.00009  -0.00053   3.12298
    R7        3.14066  -0.00001   0.00022   0.00002   0.00024   3.14090
    R8        3.12670  -0.00000  -0.00009  -0.00002  -0.00011   3.12659
    R9        1.82097   0.00000   0.00002   0.00001   0.00003   1.82099
   R10        1.82076   0.00000  -0.00000  -0.00000  -0.00001   1.82075
   R11        1.82130  -0.00000  -0.00001  -0.00000  -0.00001   1.82129
   R12        1.80836  -0.00000   0.00000  -0.00001  -0.00000   1.80836
   R13        1.80860  -0.00000   0.00001   0.00001   0.00001   1.80862
   R14        1.80855  -0.00000  -0.00003  -0.00000  -0.00003   1.80852
    A1        1.88862  -0.00001   0.00019   0.00013   0.00033   1.88895
    A2        1.88350  -0.00003  -0.00043  -0.00034  -0.00077   1.88273
    A3        1.91663   0.00001   0.00032   0.00017   0.00048   1.91712
    A4        1.92351  -0.00001  -0.00029  -0.00011  -0.00038   1.92313
    A5        1.92203   0.00002   0.00012   0.00012   0.00023   1.92226
    A6        1.92872   0.00002   0.00009   0.00002   0.00010   1.92882
    A7        0.14349   0.00009   0.00000   0.00000   0.00000   0.14349
    A8        1.85687   0.00000   0.00017   0.00008   0.00025   1.85711
    A9        1.91679  -0.00000  -0.00000   0.00005   0.00004   1.91683
   A10        2.00411  -0.00001  -0.00034  -0.00018  -0.00052   2.00359
   A11        1.98554  -0.00000  -0.00009  -0.00005  -0.00015   1.98540
   A12        1.86921   0.00002   0.00040   0.00017   0.00057   1.86977
   A13        1.83468  -0.00002  -0.00014  -0.00006  -0.00020   1.83448
   A14        2.02396   0.00001  -0.00019   0.00007  -0.00012   2.02384
   A15        2.02707   0.00000   0.00022   0.00009   0.00031   2.02738
   A16        2.01608  -0.00000   0.00003   0.00000   0.00003   2.01611
   A17        2.88670  -0.00017  -0.00067  -0.00072  -0.00131   2.88539
   A18        3.27128  -0.00000  -0.00018  -0.00033  -0.00051   3.27078
   A19        3.32973   0.00001   0.00126   0.00211   0.00337   3.33310
   A20        3.06345   0.00000   0.00128   0.00070   0.00197   3.06542
   A21        3.21967  -0.00001  -0.00353  -0.00396  -0.00750   3.21217
   A22        3.02162   0.00001   0.00058   0.00111   0.00169   3.02331
   A23        3.20055   0.00001   0.00109   0.00135   0.00244   3.20299
   A24        3.12883   0.00001   0.00385   0.00320   0.00705   3.13588
    D1       -2.85018   0.00002   0.00652   0.00830   0.01481  -2.83537
    D2        1.28890   0.00002   0.00593   0.00774   0.01365   1.30255
    D3       -0.86763  -0.00000   0.00687   0.00839   0.01526  -0.85237
    D4        1.28117   0.00001   0.00669   0.00821   0.01491   1.29608
    D5       -0.86293   0.00000   0.00610   0.00765   0.01375  -0.84918
    D6       -3.01946  -0.00002   0.00705   0.00831   0.01536  -3.00410
    D7       -0.77403   0.00002   0.00614   0.00774   0.01388  -0.76015
    D8       -2.91814   0.00001   0.00555   0.00718   0.01272  -2.90541
    D9        1.20852  -0.00001   0.00650   0.00783   0.01433   1.22285
   D10        2.89599   0.00000   0.00022   0.00031   0.00053   2.89652
   D11       -1.27452   0.00001   0.00028   0.00039   0.00067  -1.27386
   D12        0.74476   0.00000   0.00031   0.00039   0.00070   0.74547
   D13        0.61809   0.00002   0.00168   0.00184   0.00352   0.62161
   D14       -1.46075   0.00002   0.00152   0.00175   0.00327  -1.45748
   D15        2.78295   0.00000   0.00118   0.00161   0.00279   2.78574
   D16        1.54641  -0.00001  -0.00027  -0.00011  -0.00038   1.54602
   D17       -2.67941   0.00000   0.00001  -0.00001   0.00000  -2.67940
   D18       -0.56197   0.00001   0.00003  -0.00002   0.00001  -0.56196
         Item               Value     Threshold  Converged?
 Maximum Force            0.000093     0.000450     YES
 RMS     Force            0.000017     0.000300     YES
 Maximum Displacement     0.033302     0.001800     NO 
 RMS     Displacement     0.013066     0.001200     NO 
 Predicted change in Energy=-6.034222D-07
 GradGradGradGradGradGradGradGradGradGradGradGradGradGradGradGradGradGrad

                          Input orientation:                          
 ---------------------------------------------------------------------
 Center     Atomic      Atomic             Coordinates (Angstroms)
 Number     Number       Type             X           Y           Z
 ---------------------------------------------------------------------
      1         40           0        1.377441   -0.013137   -0.007656
      2         14           0       -2.190018   -0.083025    0.017229
      3          8           0       -0.574467   -0.283445    0.024847
      4          8           0       -2.481639    1.384107    0.719797
      5          8           0       -2.919686   -1.356080    0.797909
      6          8           0       -2.877858   -0.048285   -1.487137
      7          1           0       -2.446771   -1.716958    1.555834
      8          1           0       -3.138157   -0.904691   -1.844478
      9          1           0       -3.369544    1.739372    0.601510
     10          8           0        2.147384   -1.303270   -1.229466
     11          1           0        2.649565   -1.837368   -1.844519
     12          8           0        2.048459   -0.307654    1.785893
     13          1           0        2.520423   -0.336220    2.618019
     14          8           0        1.780734    1.780796   -0.594589
     15          1           0        1.912943    2.689039   -0.865723
 ---------------------------------------------------------------------
                    Distance matrix (angstroms):
                    1          2          3          4          5
     1  Zr   0.000000
     2  Si   3.568231   0.000000
     3  O    1.970804   1.627954   0.000000
     4  O    4.168211   1.652610   2.626974   0.000000
     5  O    4.573591   1.662091   2.692253   2.776078   0.000000
     6  O    4.505294   1.654523   2.765322   2.660694   2.633156
     7  H    4.469017   2.258975   2.811478   3.211974   0.963500
     8  H    4.955745   2.245006   3.233083   3.499302   2.689552
     9  H    5.096689   2.248065   3.498112   0.963629   3.134130
    10  O    1.936511   4.675073   3.165725   5.696444   5.457860
    11  H    2.884473   5.474066   4.037770   6.578972   6.183092
    12  O    1.937478   4.598187   3.159369   4.951808   5.172792
    13  H    2.881833   5.386694   4.038028   5.619911   5.826466
    14  O    1.930111   4.428886   3.192454   4.478035   5.820051
    15  H    2.885272   5.029735   3.976932   4.850678   6.518049
                    6          7          8          9         10
[...]
 ! A22   L(1,10,11,8,-2)       172.901          -DE/DX =    0.0                 !
 ! A23   L(1,12,13,7,-2)       182.7849         -DE/DX =    0.0                 !
 ! A24   L(1,14,15,4,-2)       179.2447         -DE/DX =    0.0                 !
 ! D1    D(10,1,2,4)          -159.5499         -DE/DX =    0.0                 !
 ! D2    D(10,1,2,5)            77.5729         -DE/DX =    0.0                 !
 ! D3    D(10,1,2,6)           -45.9447         -DE/DX =    0.0                 !
 ! D4    D(12,1,2,4)            77.0436         -DE/DX =    0.0                 !
 ! D5    D(12,1,2,5)           -45.8336         -DE/DX =    0.0                 !
 ! D6    D(12,1,2,6)          -169.3511         -DE/DX =    0.0                 !
 ! D7    D(14,1,2,4)           -40.7985         -DE/DX =    0.0                 !
 ! D8    D(14,1,2,5)          -163.6757         -DE/DX =    0.0                 !
 ! D9    D(14,1,2,6)            72.8068         -DE/DX =    0.0                 !
 ! D10   D(3,2,4,9)            166.1508         -DE/DX =    0.0                 !
 ! D11   D(5,2,4,9)            -72.7947         -DE/DX =    0.0                 !
 ! D12   D(6,2,4,9)             42.9028         -DE/DX =    0.0                 !
 ! D13   D(3,2,5,7)             35.8903         -DE/DX =    0.0                 !
 ! D14   D(4,2,5,7)            -83.2161         -DE/DX =    0.0                 !
 ! D15   D(6,2,5,7)            159.9117         -DE/DX =    0.0                 !
 ! D16   D(3,2,6,8)             88.5269         -DE/DX =    0.0                 !
 ! D17   D(4,2,6,8)           -153.5931         -DE/DX =    0.0                 !
 ! D18   D(5,2,6,8)            -32.2752         -DE/DX =    0.0                 !
 --------------------------------------------------------------------------------
 GradGradGradGradGradGradGradGradGradGradGradGradGradGradGradGradGradGrad

                          Input orientation:                          
 ---------------------------------------------------------------------
 Center     Atomic      Atomic             Coordinates (Angstroms)
 Number     Number       Type             X           Y           Z
 ---------------------------------------------------------------------
      1         40           0        1.378034   -0.014195   -0.004679
      2         14           0       -2.189929   -0.083840    0.012835
      3          8           0       -0.574423   -0.283809    0.029738
      4          8           0       -2.482386    1.405068    0.668388
      5          8           0       -2.921191   -1.331358    0.831980
      6          8           0       -2.875344   -0.096175   -1.492999
      7          1           0       -2.451541   -1.665170    1.604235
      8          1           0       -3.134382   -0.963371   -1.824291
      9          1           0       -3.370806    1.755476    0.539991
     10          8           0        2.145021   -1.282124   -1.251097
     11          1           0        2.639446   -1.801247   -1.884970
     12          8           0        2.052179   -0.339087    1.782771
     13          1           0        2.537586   -0.391462    2.605980
     14          8           0        1.780803    1.789353   -0.560995
     15          1           0        1.905743    2.705122   -0.809417
 ---------------------------------------------------------------------
                    Distance matrix (angstroms):
                    1          2          3          4          5
     1  Zr   0.000000
     2  Si   3.568686   0.000000
     3  O    1.971285   1.627923   0.000000
     4  O    4.167754   1.652915   2.626880   0.000000
     5  O    4.573648   1.661940   2.692262   2.776209   0.000000
     6  O    4.507000   1.654534   2.765533   2.660778   2.633117
     7  H    4.469896   2.258672   2.812610   3.209847   0.963525
     8  H    4.957200   2.245128   3.233051   3.499722   2.690101
     9  H    5.097047   2.248432   3.498400   0.963620   3.133043
    10  O    1.936355   4.671745   3.167420   5.684920   5.477969
    11  H    2.884477   5.465713   4.037038   6.559974   6.206714
    12  O    1.937783   4.603619   3.158357   4.984597   5.159750
    13  H    2.881394   5.400781   4.041437   5.672909   5.816247
    14  O    1.929896   4.427736   3.192813   4.453519   5.812742
    15  H    2.884574   5.022842   3.973551   4.809337   6.502819
                    6          7          8          9         10
     6  O    0.000000
     7  H    3.497744   0.000000
     8  H    0.963787   3.565612   0.000000
     9  H    2.794126   3.698444   3.610797   0.000000
    10  O    5.164210   5.424761   5.319987   6.546706   0.000000
    11  H    5.785657   6.173429   5.834622   7.392824   0.956943
    12  O    5.922007   4.698283   6.348311   5.944785   3.178410
    13  H    6.796222   5.245685   7.219807   6.617156   3.977993
    14  O    5.109163   5.876622   5.773427   5.268054   3.169049
    15  H    5.583309   6.626544   6.315907   5.528535   4.018764
                   11         12         13         14         15
    11  H    0.000000
    12  O    3.991881   0.000000
    13  H    4.708131   0.957098   0.000000
    14  O    3.922065   3.177600   3.918980   0.000000
    15  H    4.690682   4.001011   4.653278   0.957056   0.000000
 Stoichiometry    H6O7SiZr
 Framework group  C1[X(H6O7SiZr)]
 Deg. of freedom    39
 Full point group                 C1      NOp   1
 Largest Abelian subgroup         C1      NOp   1
 Largest concise Abelian subgroup C1      NOp   1
                         Standard orientation:                         
 ---------------------------------------------------------------------
 Center     Atomic      Atomic             Coordinates (Angstroms)
 Number     Number       Type             X           Y           Z
 ---------------------------------------------------------------------
      1         40           0        1.381605   -0.011632   -0.010047
      2         14           0       -2.186998   -0.016440    0.013863
      3          8           0       -0.575412   -0.246392    0.020606
      4          8           0       -2.450839    1.456282    0.716432
      5          8           0       -2.939564   -1.275433    0.795288
      6          8           0       -2.875281    0.031009   -1.489965
      7          1           0       -2.474715   -1.641844    1.555576
      8          1           0       -3.150820   -0.820482   -1.847633
      9          1           0       -3.332903    1.826756    0.601211
     10          8           0        2.122874   -1.253682   -1.297410
     11          1           0        2.606513   -1.761638   -1.948420
     12          8           0        2.052936   -0.404712    1.764722
     13          1           0        2.538805   -0.491758    2.584716
     14          8           0        1.816434    1.800797   -0.510567
     15          1           0        1.957729    2.721464   -0.730484
 ---------------------------------------------------------------------
 Rotational constants (GHZ):           1.6288303           0.4744669           0.4717715

 **********************************************************************

            Population analysis using the SCF Density.

 **********************************************************************

 Orbital symmetries:
       Occupied  (A) (A) (A) (A) (A) (A) (A) (A) (A) (A) (A) (A)
                 (A) (A) (A) (A) (A) (A) (A) (A) (A) (A) (A) (A)
                 (A) (A) (A) (A) (A) (A) (A) (A) (A) (A) (A) (A)
                 (A) (A) (A) (A) (A) (A) (A) (A)
       Virtual   (A) (A) (A) (A) (A) (A) (A) (A) (A) (A) (A) (A)
                 (A) (A) (A) (A) (A) (A) (A) (A) (A) (A) (A) (A)
                 (A) (A) (A) (A) (A) (A) (A) (A) (A) (A) (A) (A)
                 (A) (A) (A) (A) (A) (A) (A) (A) (A) (A) (A) (A)
                 (A) (A) (A) (A) (A) (A) (A) (A) (A) (A) (A) (A)
                 (A) (A) (A) (A) (A) (A) (A) (A) (A) (A) (A) (A)
                 (A) (A) (A) (A) (A) (A) (A) (A) (A) (A) (A) (A)
                 (A) (A) (A) (A) (A) (A) (A) (A) (A) (A) (A) (A)
                 (A) (A) (A) (A) (A) (A) (A) (A) (A) (A) (A) (A)
                 (A) (A) (A) (A) (A) (A) (A) (A) (A) (A) (A) (A)
                 (A) (A) (A) (A) (A) (A) (A) (A) (A) (A) (A) (A)
                 (A) (A) (A) (A) (A) (A) (A) (A) (A) (A) (A) (A)
                 (A) (A) (A) (A) (A) (A) (A) (A) (A) (A) (A) (A)
                 (A) (A) (A) (A) (A) (A) (A) (A) (A) (A) (A) (A)
                 (A) (A) (A) (A) (A) (A) (A) (A) (A) (A) (A) (A)
                 (A) (A) (A) (A) (A) (A) (A) (A) (A) (A) (A) (A)
                 (A) (A) (A) (A) (A) (A) (A) (A) (A) (A) (A) (A)
                 (A) (A) (A) (A) (A) (A) (A) (A) (A) (A) (A) (A)
                 (A) (A) (A) (A) (A) (A)
 The electronic state is 1-A.
 Alpha  occ. eigenvalues --  -66.19955 -19.15200 -19.15152 -19.14920 -19.14397
 Alpha  occ. eigenvalues --  -19.14300 -19.14238 -19.13217  -5.34052  -3.70017
 Alpha  occ. eigenvalues --   -3.70011  -3.69972  -2.11233  -1.27536  -1.27436
 Alpha  occ. eigenvalues --   -1.27131  -1.02791  -0.99605  -0.99424  -0.96639
 Alpha  occ. eigenvalues --   -0.95433  -0.95380  -0.94122  -0.57471  -0.52281
 Alpha  occ. eigenvalues --   -0.51580  -0.50360  -0.49688  -0.49626  -0.45674
 Alpha  occ. eigenvalues --   -0.39602  -0.37777  -0.37272  -0.36065  -0.35641
 Alpha  occ. eigenvalues --   -0.34664  -0.34237  -0.33917  -0.32941  -0.32795
 Alpha  occ. eigenvalues --   -0.32052  -0.31301  -0.31220  -0.30670
 Alpha virt. eigenvalues --   -0.02931  -0.01300  -0.00741  -0.00566   0.00274
 Alpha virt. eigenvalues --    0.00366   0.01082   0.01271   0.01736   0.02308
 Alpha virt. eigenvalues --    0.02394   0.02957   0.03202   0.03292   0.03353
 Alpha virt. eigenvalues --    0.04261   0.04509   0.04618   0.05273   0.05768
 Alpha virt. eigenvalues --    0.06782   0.09104   0.09550   0.09816   0.10090
 Alpha virt. eigenvalues --    0.10135   0.11243   0.12477   0.13454   0.13746
 Alpha virt. eigenvalues --    0.14789   0.15388   0.15947   0.16345   0.17916
 Alpha virt. eigenvalues --    0.18318   0.18362   0.18966   0.19497   0.19893
 Alpha virt. eigenvalues --    0.20292   0.20407   0.21257   0.21666   0.22523
 Alpha virt. eigenvalues --    0.23105   0.24159   0.25072   0.26123   0.26525
 Alpha virt. eigenvalues --    0.27069   0.27538   0.27857   0.28387   0.28637
 Alpha virt. eigenvalues --    0.29157   0.29525   0.29589   0.29872   0.30702
 Alpha virt. eigenvalues --    0.31219   0.32923   0.34164   0.34618   0.35363
 Alpha virt. eigenvalues --    0.35535   0.36045   0.37120   0.37817   0.39012
 Alpha virt. eigenvalues --    0.41758   0.44004   0.44486   0.46635   0.47615
 Alpha virt. eigenvalues --    0.48198   0.49550   0.50840   0.51380   0.52583
 Alpha virt. eigenvalues --    0.54984   0.57278   0.58250   0.60123   0.60652
 Alpha virt. eigenvalues --    0.61499   0.62366   0.62921   0.64581   0.65127
 Alpha virt. eigenvalues --    0.66202   0.68181   0.69242   0.72463   0.73799
 Alpha virt. eigenvalues --    0.74783   0.76050   0.77208   0.78662   0.81334
 Alpha virt. eigenvalues --    0.85540   0.86212   0.96141   0.97787   0.98946
 Alpha virt. eigenvalues --    1.01691   1.02524   1.04682   1.05598   1.06462
 Alpha virt. eigenvalues --    1.07740   1.18609   1.19892   1.20456   1.21472
 Alpha virt. eigenvalues --    1.21545   1.22773   1.23434   1.23789   1.24465
 Alpha virt. eigenvalues --    1.25607   1.26399   1.28090   1.28546   1.28840
 Alpha virt. eigenvalues --    1.29086   1.30158   1.31091   1.31509   1.33065
 Alpha virt. eigenvalues --    1.33150   1.36721   1.42738   1.43631   1.45687
 Alpha virt. eigenvalues --    1.48927   1.53050   1.57181   1.59772   1.61092
 Alpha virt. eigenvalues --    1.62789   1.63102   1.63851   1.64351   1.67784
 Alpha virt. eigenvalues --    1.69267   1.71524   1.72280   1.72701   1.73038
 Alpha virt. eigenvalues --    1.73804   1.74056   1.75053   1.76639   1.77342
 Alpha virt. eigenvalues --    1.79290   1.80585   1.83099   1.83564   1.84391
 Alpha virt. eigenvalues --    1.86184   1.87906   1.90881   1.91157   1.92521
 Alpha virt. eigenvalues --    1.93151   1.94200   1.95027   1.95716   1.97271
 Alpha virt. eigenvalues --    1.99038   1.99479   2.00205   2.01778   2.06910
 Alpha virt. eigenvalues --    2.07260   2.08380   2.10077   2.14723   2.17412
 Alpha virt. eigenvalues --    2.19982   2.20376   2.21384   2.26659   2.31920
 Alpha virt. eigenvalues --    2.37670   2.41940   2.42378   2.43481   2.45108
 Alpha virt. eigenvalues --    2.50915   2.58545   2.59587   2.62540   2.63419
 Alpha virt. eigenvalues --    2.64766   2.66844   2.68300   2.68683   2.73089
 Alpha virt. eigenvalues --    2.78422   2.80452   2.80819   2.83774   2.87714
 Alpha virt. eigenvalues --    2.90394   2.91003   2.91397   2.92609   2.93930
 Alpha virt. eigenvalues --    3.01801   3.16882   3.46859   3.48348   3.51405
 Alpha virt. eigenvalues --    3.54254   3.57636   3.87091   4.12968   4.14804
 Alpha virt. eigenvalues --    4.18407  31.04381
          Condensed to atoms (all electrons):
               1          2          3          4          5          6
     1  Zr  10.435578   0.138732  -0.031045   0.003143  -0.075385  -0.042076
     2  Si   0.138732  12.915221  -0.686704  -0.069303  -0.129910   0.009023
     3  O   -0.031045  -0.686704   8.951037   0.112759   0.277963   0.099872
     4  O    0.003143  -0.069303   0.112759   8.564051  -0.030992   0.025623
     5  O   -0.075385  -0.129910   0.277963  -0.030992   8.528208   0.025347
     6  O   -0.042076   0.009023   0.099872   0.025623   0.025347   8.521914
     7  H   -0.003419   0.028778  -0.002333  -0.006536   0.242410   0.006588
     8  H    0.001317   0.061168  -0.021536   0.006651  -0.005776   0.232695
     9  H   -0.004431   0.036475   0.010293   0.223976  -0.005705  -0.005738
    10  O    0.033225  -0.013937  -0.025480   0.000661   0.000912   0.001114
    11  H   -0.087336   0.000772  -0.001101   0.000001   0.000002   0.000007
    12  O    0.039209  -0.013606  -0.025971   0.000072   0.001843   0.000265
    13  H   -0.086109   0.000768  -0.000893  -0.000001   0.000003   0.000001
    14  O    0.027229  -0.020977  -0.025227   0.002706   0.001010  -0.000620
    15  H   -0.090388   0.001003  -0.000629   0.000081   0.000003   0.000009
               7          8          9         10         11         12
     1  Zr  -0.003419   0.001317  -0.004431   0.033225  -0.087336   0.039209
     2  Si   0.028778   0.061168   0.036475  -0.013937   0.000772  -0.013606
     3  O   -0.002333  -0.021536   0.010293  -0.025480  -0.001101  -0.025971
     4  O   -0.006536   0.006651   0.223976   0.000661   0.000001   0.000072
     5  O    0.242410  -0.005776  -0.005705   0.000912   0.000002   0.001843
     6  O    0.006588   0.232695  -0.005738   0.001114   0.000007   0.000265
     7  H    0.370726   0.000056   0.000095   0.000017   0.000000  -0.000074
     8  H    0.000056   0.358693   0.000058  -0.000009   0.000000  -0.000007
     9  H    0.000095   0.000058   0.369832  -0.000001  -0.000000  -0.000012
    10  O    0.000017  -0.000009  -0.000001   8.605337   0.327106  -0.032492
    11  H    0.000000   0.000000  -0.000000   0.327106   0.382289  -0.000774
    12  O   -0.000074  -0.000007  -0.000012  -0.032492  -0.000774   8.598743
    13  H   -0.000000  -0.000000  -0.000000  -0.000793  -0.000008   0.325317
    14  O   -0.000008   0.000005  -0.000070  -0.034587  -0.001335  -0.037053
    15  H    0.000000  -0.000000  -0.000000  -0.000678  -0.000008  -0.000916
              13         14         15
     1  Zr  -0.086109   0.027229  -0.090388
     2  Si   0.000768  -0.020977   0.001003
     3  O   -0.000893  -0.025227  -0.000629
     4  O   -0.000001   0.002706   0.000081
     5  O    0.000003   0.001010   0.000003
     6  O    0.000001  -0.000620   0.000009
     7  H   -0.000000  -0.000008   0.000000
     8  H   -0.000000   0.000005  -0.000000
     9  H   -0.000000  -0.000070  -0.000000
    10  O   -0.000793  -0.034587  -0.000678
    11  H   -0.000008  -0.001335  -0.000008
    12  O    0.325317  -0.037053  -0.000916
    13  H    0.382256  -0.001453  -0.000010
    14  O   -0.001453   8.607548   0.331918
    15  H   -0.000010   0.331918   0.378921
 Mulliken charges:
               1
     1  Zr   1.741757
     2  Si   1.742498
     3  O   -0.631003
     4  O   -0.832891
     5  O   -0.829931
     6  O   -0.874025
     7  H    0.363701
     8  H    0.366687
     9  H    0.375229
    10  O   -0.860394
    11  H    0.380384
    12  O   -0.854544
    13  H    0.380923
    14  O   -0.849086
    15  H    0.380695
 Sum of Mulliken charges =  -0.00000
 Mulliken charges with hydrogens summed into heavy atoms:
               1
     1  Zr   1.741757
     2  Si   1.742498
     3  O   -0.631003
     4  O   -0.457662
     5  O   -0.466230
     6  O   -0.507339
    10  O   -0.480011
    12  O   -0.473620
    14  O   -0.468391
 Electronic spatial extent (au):  <R**2>=           2254.5186
 Charge=              0.0000 electrons
 Dipole moment (field-independent basis, Debye):
    X=              1.8637    Y=             -0.6189    Z=              0.2945  Tot=              1.9858
 Quadrupole moment (field-independent basis, Debye-Ang):
   XX=            -68.8953   YY=            -68.4022   ZZ=            -67.9412
   XY=             -0.3451   XZ=             -0.0509   YZ=              0.6041
 Traceless Quadrupole moment (field-independent basis, Debye-Ang):
   XX=             -0.4824   YY=              0.0107   ZZ=              0.4717
   XY=             -0.3451   XZ=             -0.0509   YZ=              0.6041
 Octapole moment (field-independent basis, Debye-Ang**2):
  XXX=             49.5038  YYY=             16.2085  ZZZ=             11.6842  XYY=             20.0587
  XXY=              8.6923  XXZ=             -0.8454  XZZ=             29.6617  YZZ=            -21.2088
  YYZ=            -10.3092  XYZ=             -4.2740
 Hexadecapole moment (field-independent basis, Debye-Ang**3):
 XXXX=          -1900.5305 YYYY=           -354.2590 ZZZZ=           -349.0296 XXXY=           -101.8939
 XXXZ=             19.9346 YYYX=             17.3504 YYYZ=            -15.2162 ZZZX=             24.4706
 ZZZY=              6.5763 XXYY=           -338.1447 XXZZ=           -323.6874 YYZZ=           -114.0755
 XXYZ=             50.1345 YYXZ=            -29.7736 ZZXY=              9.3745
 N-N= 6.316598226048D+02 E-N=-3.300861466743D+03  KE= 8.306839655165D+02
 1\1\GINC-GRA1046\FOpt\RB3LYP\Gen\H6O7Si1Zr1\SARASHS\15-Jul-2020\0\\#n 
 B3LYP/Gen Pseudo=cards EmpiricalDispersion=GD3 Opt=modredundant\\Title
 \\0,1\Zr,1.3780344023,-0.0141953425,-0.0046791419\Si,-2.1899291633,-0.
 083839851,0.0128353338\O,-0.5744230278,-0.2838088729,0.029737541\O,-2.
 4823857309,1.4050678102,0.6683882673\O,-2.9211913257,-1.3313579799,0.8
 319801168\O,-2.8753442464,-0.0961747382,-1.4929987352\H,-2.4515408348,
 -1.6651698755,1.6042352612\H,-3.1343824571,-0.9633714329,-1.8242911022
 \H,-3.3708062839,1.7554761306,0.5399906791\O,2.1450212596,-1.282124069
 9,-1.251097145\H,2.6394462771,-1.8012471833,-1.8849699279\O,2.05217933
 19,-0.3390873955,1.7827708123\H,2.5375860436,-0.3914623154,2.605979896
 8\O,1.7808025259,1.7893534534,-0.5609946593\H,1.9057432297,2.705121662
 8,-0.8094171968\\Version=ES64L-G16RevB.01\State=1-A\HF=-867.1278496\RM
 SD=5.972e-09\RMSF=1.236e-05\Dipole=0.7373047,-0.2262345,0.1247896\Quad
 rupole=-0.348876,0.0268125,0.3220635,-0.2655708,-0.0394376,0.4578762\P
 G=C01 [X(H6O7Si1Zr1)]\\@


 POCKETA-POCKETA
 BARON VON RICHTOFEN
 SLAUGHTERED THE ALLIES WITH
 HARDLY A CARE.
 KILLED EIGHTY-ONE WITH HIS
 BLOOD-COLORED TRIPLANE, THEN
 UN-AEROBATICALLY
 PLUNGED FROM THE AIR.
   -- TONY HOFFMAN
 Job cpu time:       0 days  2 hours 41 minutes 15.6 seconds.
 Elapsed time:       0 days  0 hours 11 minutes 40.5 seconds.
 File lengths (MBytes):  RWF=     48 Int=      0 D2E=      0 Chk=      6 Scr=      1
 Normal termination of Gaussian 16 at Wed Jul 15 14:41:03 2020.
