15
	Energy: -544130.6326571
Zr         1.37839       -0.01367       -0.01029
Si        -2.18162       -0.02177        0.01397
O         -0.57498       -0.28442        0.01654
O         -2.41465        1.44853        0.73289
O         -2.95861       -1.27379        0.78231
O         -2.87072        0.05734       -1.48824
H         -2.49659       -1.66321        1.53281
H         -3.16517       -0.78405       -1.85466
H         -3.28787        1.84003        0.61988
O          2.15239       -1.31312       -1.21960
H          2.65751       -1.85105       -1.82887
O          2.04402       -0.29207        1.78758
H          2.51011       -0.31610        2.62313
O          1.78195        1.77520       -0.61110
H          1.91399        2.68442       -0.87911
