 Entering Gaussian System, Link 0=g16
 Initial command:
 /opt/software/gaussian/g16.b01/l1.exe "/localscratch/sarashs.35132323.0/Gau-13088.inp" -scrdir="/localscratch/sarashs.35132323.0/"
 Entering Link 1 = /opt/software/gaussian/g16.b01/l1.exe PID=     13091.
  
 Copyright (c) 1988-2017, Gaussian, Inc.  All Rights Reserved.
  
 This is part of the Gaussian(R) 16 program.  It is based on
 the Gaussian(R) 09 system (copyright 2009, Gaussian, Inc.),
 the Gaussian(R) 03 system (copyright 2003, Gaussian, Inc.),
 the Gaussian(R) 98 system (copyright 1998, Gaussian, Inc.),
 the Gaussian(R) 94 system (copyright 1995, Gaussian, Inc.),
 the Gaussian 92(TM) system (copyright 1992, Gaussian, Inc.),
 the Gaussian 90(TM) system (copyright 1990, Gaussian, Inc.),
 the Gaussian 88(TM) system (copyright 1988, Gaussian, Inc.),
 the Gaussian 86(TM) system (copyright 1986, Carnegie Mellon
 University), and the Gaussian 82(TM) system (copyright 1983,
 Carnegie Mellon University). Gaussian is a federally registered
 trademark of Gaussian, Inc.
  
 This software contains proprietary and confidential information,
 including trade secrets, belonging to Gaussian, Inc.
  
 This software is provided under written license and may be
 used, copied, transmitted, or stored only in accord with that
 written license.
  
 The following legend is applicable only to US Government
 contracts under FAR:
  
                    RESTRICTED RIGHTS LEGEND
  
 Use, reproduction and disclosure by the US Government is
 subject to restrictions as set forth in subparagraphs (a)
 and (c) of the Commercial Computer Software - Restricted
 Rights clause in FAR 52.227-19.
  
 Gaussian, Inc.
 340 Quinnipiac St., Bldg. 40, Wallingford CT 06492
  
  
 ---------------------------------------------------------------
 Warning -- This program may not be used in any manner that
 competes with the business of Gaussian, Inc. or will provide
 assistance to any competitor of Gaussian, Inc.  The licensee
 of this program is prohibited from giving any competitor of
 Gaussian, Inc. access to this program.  By using this program,
 the user acknowledges that Gaussian, Inc. is engaged in the
 business of creating and licensing software in the field of
 computational chemistry and represents and warrants to the
 licensee that it is not a competitor of Gaussian, Inc. and that
 it will not use this program in any manner prohibited above.
 ---------------------------------------------------------------
  

 Cite this work as:
 Gaussian 16, Revision B.01,
 M. J. Frisch, G. W. Trucks, H. B. Schlegel, G. E. Scuseria, 
 M. A. Robb, J. R. Cheeseman, G. Scalmani, V. Barone, 
 G. A. Petersson, H. Nakatsuji, X. Li, M. Caricato, A. V. Marenich, 
 J. Bloino, B. G. Janesko, R. Gomperts, B. Mennucci, H. P. Hratchian, 
 J. V. Ortiz, A. F. Izmaylov, J. L. Sonnenberg, D. Williams-Young, 
 F. Ding, F. Lipparini, F. Egidi, J. Goings, B. Peng, A. Petrone, 
 T. Henderson, D. Ranasinghe, V. G. Zakrzewski, J. Gao, N. Rega, 
 G. Zheng, W. Liang, M. Hada, M. Ehara, K. Toyota, R. Fukuda, 
 J. Hasegawa, M. Ishida, T. Nakajima, Y. Honda, O. Kitao, H. Nakai, 
 T. Vreven, K. Throssell, J. A. Montgomery, Jr., J. E. Peralta, 
 F. Ogliaro, M. J. Bearpark, J. J. Heyd, E. N. Brothers, K. N. Kudin, 
 V. N. Staroverov, T. A. Keith, R. Kobayashi, J. Normand, 
 K. Raghavachari, A. P. Rendell, J. C. Burant, S. S. Iyengar, 
 J. Tomasi, M. Cossi, J. M. Millam, M. Klene, C. Adamo, R. Cammi, 
 J. W. Ochterski, R. L. Martin, K. Morokuma, O. Farkas, 
 J. B. Foresman, and D. J. Fox, Gaussian, Inc., Wallingford CT, 2016.
 
 ******************************************
 Gaussian 16:  ES64L-G16RevB.01 20-Dec-2017
                15-Jul-2020 
 ******************************************
 %NProcShared=16
 Will use up to   16 processors via shared memory.
 ------------------------------------------------------------------
 #n B3LYP/Gen Pseudo=cards EmpiricalDispersion=GD3 Opt=modredundant
 ------------------------------------------------------------------
 1/18=120,19=15,26=3,38=1/1,3;
 2/9=110,12=2,17=6,18=5,40=1/2;
 3/5=7,11=2,16=1,17=8,25=1,30=1,71=1,74=-5,124=31/1,2,3;
 4//1;
 5/5=2,38=5/2;
 6/7=2,8=2,9=2,10=2,28=1/1;
 7//1,2,3,16;
 1/18=20,19=15,26=3/3(2);
 2/9=110/2;
 99//99;
 2/9=110/2;
 3/5=7,6=1,11=2,16=1,17=8,25=1,30=1,71=1,74=-5,82=7,124=31/1,2,3;
 4/5=5,16=3,69=1/1;
 5/5=2,38=5/2;
 7//1,2,3,16;
 1/18=20,19=15,26=3/3(-5);
 2/9=110/2;
 6/7=2,8=2,9=2,10=2,19=2,28=1/1;
 99/9=1/99;
 -----
 Title
 -----
 Symbolic Z-matrix:
 Charge =  0 Multiplicity = 1
 Zr                    1.37839  -0.01367  -0.01029 
 Si                   -2.2008   -0.36671   0.03161 
 O                    -0.57498  -0.28442   0.01654 
 O                    -2.73099   1.02112   0.75671 
 O                    -2.68773  -1.7547    0.80491 
 O                    -2.90735  -0.43438  -1.46303 
 H                    -2.14582  -2.03806   1.54949 
 H                    -3.0216   -1.31886  -1.82847 
 H                    -3.66833   1.21957   0.65393 
 O                     2.15239  -1.31312  -1.2196 
 H                     2.65751  -1.85105  -1.82887 
 O                     2.04402  -0.29207   1.78758 
 H                     2.51011  -0.3161    2.62313 
 O                     1.78195   1.7752   -0.6111 
 H                     1.91399   2.68442  -0.87911 
 
 The following ModRedundant input section has been read:
 A       1       2       3 F                                                   
 

 GradGradGradGradGradGradGradGradGradGradGradGradGradGradGradGradGradGrad
 Berny optimization.
 Initialization pass.
                           ----------------------------
                           !    Initial Parameters    !
                           ! (Angstroms and Degrees)  !
 --------------------------                            --------------------------
 ! Name  Definition              Value          Derivative Info.                !
 --------------------------------------------------------------------------------
 ! R1    R(1,3)                  1.9722         estimate D2E/DX2                !
 ! R2    R(1,10)                 1.9365         estimate D2E/DX2                !
 ! R3    R(1,12)                 1.9372         estimate D2E/DX2                !
 ! R4    R(1,14)                 1.9297         estimate D2E/DX2                !
 ! R5    R(2,3)                  1.628          estimate D2E/DX2                !
 ! R6    R(2,4)                  1.6532         estimate D2E/DX2                !
 ! R7    R(2,5)                  1.6618         estimate D2E/DX2                !
 ! R8    R(2,6)                  1.6546         estimate D2E/DX2                !
 ! R9    R(4,9)                  0.9636         estimate D2E/DX2                !
 ! R10   R(5,7)                  0.9635         estimate D2E/DX2                !
 ! R11   R(6,8)                  0.9638         estimate D2E/DX2                !
 ! R12   R(10,11)                0.9569         estimate D2E/DX2                !
 ! R13   R(12,13)                0.9571         estimate D2E/DX2                !
 ! R14   R(14,15)                0.9571         estimate D2E/DX2                !
 ! A1    A(3,1,10)             108.1944         estimate D2E/DX2                !
 ! A2    A(3,1,12)             107.9362         estimate D2E/DX2                !
 ! A3    A(3,1,14)             109.793          estimate D2E/DX2                !
 ! A4    A(10,1,12)            110.2299         estimate D2E/DX2                !
 ! A5    A(10,1,14)            110.1226         estimate D2E/DX2                !
 ! A6    A(12,1,14)            110.5061         estimate D2E/DX2                !
 ! A7    A(1,2,3)                2.739          Frozen                          !
 ! A8    A(3,2,4)              106.3745         estimate D2E/DX2                !
 ! A9    A(3,2,5)              109.8252         estimate D2E/DX2                !
 ! A10   A(3,2,6)              114.8447         estimate D2E/DX2                !
 ! A11   A(4,2,5)              113.772          estimate D2E/DX2                !
 ! A12   A(4,2,6)              107.0731         estimate D2E/DX2                !
 ! A13   A(5,2,6)              105.1333         estimate D2E/DX2                !
 ! A14   A(2,4,9)              115.9811         estimate D2E/DX2                !
 ! A15   A(2,5,7)              116.1316         estimate D2E/DX2                !
 ! A16   A(2,6,8)              115.5094         estimate D2E/DX2                !
 ! A17   L(1,3,2,7,-1)         183.796          estimate D2E/DX2                !
 ! A18   L(1,10,11,8,-1)       187.8345         estimate D2E/DX2                !
 ! A19   L(1,12,13,7,-1)       190.9452         estimate D2E/DX2                !
 ! A20   L(1,14,15,9,-1)       175.5264         estimate D2E/DX2                !
 ! A21   L(1,3,2,7,-2)         175.845          estimate D2E/DX2                !
 ! A22   L(1,10,11,8,-2)       173.84           estimate D2E/DX2                !
 ! A23   L(1,12,13,7,-2)       182.2454         estimate D2E/DX2                !
 ! A24   L(1,14,15,9,-2)       178.6691         estimate D2E/DX2                !
 ! D1    D(10,1,2,4)          -165.4155         estimate D2E/DX2                !
 ! D2    D(10,1,2,5)            71.1493         estimate D2E/DX2                !
 ! D3    D(10,1,2,6)           -48.8024         estimate D2E/DX2                !
 ! D4    D(12,1,2,4)            74.0503         estimate D2E/DX2                !
 ! D5    D(12,1,2,5)           -49.385          estimate D2E/DX2                !
 ! D6    D(12,1,2,6)          -169.3366         estimate D2E/DX2                !
 ! D7    D(14,1,2,4)           -45.5338         estimate D2E/DX2                !
 ! D8    D(14,1,2,5)          -168.969          estimate D2E/DX2                !
 ! D9    D(14,1,2,6)            71.0793         estimate D2E/DX2                !
 ! D10   D(3,2,4,9)            165.9161         estimate D2E/DX2                !
 ! D11   D(5,2,4,9)            -73.0407         estimate D2E/DX2                !
 ! D12   D(6,2,4,9)             42.6619         estimate D2E/DX2                !
 ! D13   D(3,2,5,7)             35.329          estimate D2E/DX2                !
 ! D14   D(4,2,5,7)            -83.7658         estimate D2E/DX2                !
 ! D15   D(6,2,5,7)            159.3969         estimate D2E/DX2                !
 ! D16   D(3,2,6,8)             88.6228         estimate D2E/DX2                !
 ! D17   D(4,2,6,8)           -153.525          estimate D2E/DX2                !
 ! D18   D(5,2,6,8)            -32.2001         estimate D2E/DX2                !
 --------------------------------------------------------------------------------
 Trust Radius=3.00D-01 FncErr=1.00D-07 GrdErr=1.00D-06 EigMax=2.50D+02 EigMin=1.00D-04
 Number of steps in this run=     66 maximum allowed number of steps=    100.
 GradGradGradGradGradGradGradGradGradGradGradGradGradGradGradGradGradGrad

                          Input orientation:                          
 ---------------------------------------------------------------------
 Center     Atomic      Atomic             Coordinates (Angstroms)
 Number     Number       Type             X           Y           Z
 ---------------------------------------------------------------------
      1         40           0        1.378390   -0.013670   -0.010290
      2         14           0       -2.200800   -0.366710    0.031610
      3          8           0       -0.574980   -0.284420    0.016540
      4          8           0       -2.730990    1.021120    0.756710
      5          8           0       -2.687730   -1.754700    0.804910
      6          8           0       -2.907350   -0.434380   -1.463030
      7          1           0       -2.145820   -2.038060    1.549490
      8          1           0       -3.021600   -1.318860   -1.828470
      9          1           0       -3.668330    1.219570    0.653930
     10          8           0        2.152390   -1.313120   -1.219600
     11          1           0        2.657510   -1.851050   -1.828870
     12          8           0        2.044020   -0.292070    1.787580
     13          1           0        2.510110   -0.316100    2.623130
     14          8           0        1.781950    1.775200   -0.611100
     15          1           0        1.913990    2.684420   -0.879110
 ---------------------------------------------------------------------
                    Distance matrix (angstroms):
                    1          2          3          4          5
     1  Zr   0.000000
     2  Si   3.596803   0.000000
     3  O    1.972227   1.627971   0.000000
     4  O    4.306516   1.653162   2.626912   0.000000
     5  O    4.497674   1.661809   2.692018   2.776575   0.000000
     6  O    4.544779   1.654612   2.766146   2.660231   2.633444
     7  H    4.353289   2.258405   2.809400   3.213955   0.963514
     8  H    4.936518   2.245039   3.234204   3.499016   2.690003
     9  H    5.237504   2.248824   3.498152   0.963614   3.135387
    10  O    1.936512   4.627254   3.166198   5.762107   5.265016
    11  H    2.884328   5.409975   4.038423   6.631027   5.959670
    12  O    1.937242   4.594290   3.161614   5.058447   5.049196
    13  H    2.882214   5.376915   4.038947   5.721959   5.691488
    14  O    1.929738   4.567620   3.192348   4.775580   5.868843
    15  H    2.884685   5.202913   3.976326   5.197914   6.611924
                    6          7          8          9         10
     6  O    0.000000
     7  H    3.496712   0.000000
     8  H    0.963797   3.562984   0.000000
     9  H    2.792161   3.705701   3.608905   0.000000
    10  O    5.141246   5.164108   5.209696   6.618566   0.000000
    11  H    5.753995   5.875395   5.703991   7.457161   0.956935
    12  O    5.924760   4.545319   6.307981   6.016740   3.177644
    13  H    6.786720   5.078930   7.170919   6.664019   3.986049
    14  O    5.253338   5.885276   5.842028   5.622684   3.169419
    15  H    5.771758   6.684458   6.425542   5.971457   4.019091
                   11         12         13         14         15
    11  H    0.000000
    12  O    3.985662   0.000000
    13  H    4.711486   0.957059   0.000000
    14  O    3.924189   3.177413   3.919693   0.000000
    15  H    4.693118   3.998454   4.650179   0.957050   0.000000
 Stoichiometry    H6O7SiZr
 Framework group  C1[X(H6O7SiZr)]
 Deg. of freedom    39
 Full point group                 C1      NOp   1
 Largest Abelian subgroup         C1      NOp   1
 Largest concise Abelian subgroup C1      NOp   1
                         Standard orientation:                         
 ---------------------------------------------------------------------
 Center     Atomic      Atomic             Coordinates (Angstroms)
 Number     Number       Type             X           Y           Z
 ---------------------------------------------------------------------
      1         40           0        1.392285   -0.002247   -0.010612
      2         14           0       -2.204438    0.005881    0.011931
      3          8           0       -0.578473   -0.074904    0.012039
      4          8           0       -2.597130    1.494725    0.613662
      5          8           0       -2.831597   -1.258122    0.889756
      6          8           0       -2.906408   -0.115074   -1.481504
      7          1           0       -2.324592   -1.531104    1.662275
      8          1           0       -3.106524   -1.011106   -1.774735
      9          1           0       -3.509412    1.775894    0.482366
     10          8           0        2.038918   -1.467749   -1.098843
     11          1           0        2.490953   -2.101731   -1.655131
     12          8           0        2.017392   -0.195273    1.812816
     13          1           0        2.474386   -0.196044    2.653718
     14          8           0        1.975634    1.681835   -0.750516
     15          1           0        2.199226    2.548135   -1.090335
 ---------------------------------------------------------------------
 Rotational constants (GHZ):           1.6238814           0.4694067           0.4662246
 General basis read from cards:  (5D, 7F)
 ======================================================================================================
                                       Pseudopotential Parameters
 ======================================================================================================
  Center     Atomic      Valence      Angular      Power
  Number     Number     Electrons     Momentum     of R      Exponent        Coefficient   SO-Coeffient
 ======================================================================================================
    1         40           12
                                      G and up 
                                                     2        1.0000000        0.00000000    0.00000000
                                      S - G
                                                     2        8.6365280      150.24299400    0.00000000
                                                     2        3.7176390       18.78003600    0.00000000
                                      P - G
                                                     2        7.6267280       33.19279100    0.00000000
                                                     2        7.4532070       66.38903900    0.00000000
                                                     2        3.3583890        4.62072600    0.00000000
                                                     2        3.2297380        9.26027000    0.00000000
                                      D - G
                                                     2        5.9380860       13.99338300    0.00000000
                                                     2        5.8255440       20.99588200    0.00000000
                                                     2        2.2050190        2.28516600    0.00000000
                                                     2        2.2062920        3.44126000    0.00000000
                                      F - G
                                                     2        4.8002150       -5.23932000    0.00000000
                                                     2        4.7989920       -6.98742400    0.00000000
    2         14
                                   No pseudopotential on this center.
    3          8
                                   No pseudopotential on this center.
    4          8
                                   No pseudopotential on this center.
    5          8
                                   No pseudopotential on this center.
    6          8
                                   No pseudopotential on this center.
    7          1
                                   No pseudopotential on this center.
    8          1
                                   No pseudopotential on this center.
    9          1
                                   No pseudopotential on this center.
   10          8
                                   No pseudopotential on this center.
   11          1
                                   No pseudopotential on this center.
   12          8
                                   No pseudopotential on this center.
   13          1
                                   No pseudopotential on this center.
   14          8
                                   No pseudopotential on this center.
   15          1
                                   No pseudopotential on this center.
 ======================================================================================================
 There are   300 symmetry adapted cartesian basis functions of A   symmetry.
 There are   266 symmetry adapted basis functions of A   symmetry.
   266 basis functions,   576 primitive gaussians,   300 cartesian basis functions
    44 alpha electrons       44 beta electrons
       nuclear repulsion energy       630.3165556455 Hartrees.
 NAtoms=   15 NActive=   15 NUniq=   15 SFac= 1.00D+00 NAtFMM=   60 NAOKFM=F Big=F
 Integral buffers will be    131072 words long.
 Raffenetti 2 integral format.
 Two-electron integral symmetry is turned on.
 Nuclear repulsion after empirical dispersion term =      630.3063652868 Hartrees.
 One-electron integrals computed using PRISM.
 PrsmSu:  requested number of processors reduced to:   4 ShMem   1 Linda.
   1 Symmetry operations used in ECPInt.
 ECPInt:  NShTT=    3321 NPrTT=   20810 LenC2=    3164 LenP2D=   14949.
 LDataN:  DoStor=T MaxTD1= 8 Len=  415
 NBasis=   266 RedAO= T EigKep=  1.01D-04  NBF=   266
 NBsUse=   266 1.00D-06 EigRej= -1.00D+00 NBFU=   266
 Defaulting to unpruned grid for atomic number  40.
 ExpMin= 1.01D-02 ExpMax= 1.61D+04 ExpMxC= 2.43D+03 IAcc=3 IRadAn=         5 AccDes= 0.00D+00
 Harris functional with IExCor=  402 and IRadAn=       5 diagonalized for initial guess.
 HarFok:  IExCor=  402 AccDes= 0.00D+00 IRadAn=         5 IDoV= 1 UseB2=F ITyADJ=14
 ICtDFT=  3500011 ScaDFX=  1.000000  1.000000  1.000000  1.000000
 Defaulting to unpruned grid for atomic number  40.
 FoFCou: FMM=F IPFlag=           0 FMFlag=      100000 FMFlg1=           0
         NFxFlg=           0 DoJE=T BraDBF=F KetDBF=T FulRan=T
         wScrn=  0.000000 ICntrl=       500 IOpCl=  0 I1Cent=   200000004 NGrid=           0
         NMat0=    1 NMatS0=      1 NMatT0=    0 NMatD0=    1 NMtDS0=    0 NMtDT0=    0
 Petite list used in FoFCou.
 Requested convergence on RMS density matrix=1.00D-08 within 128 cycles.
 Requested convergence on MAX density matrix=1.00D-06.
 Requested convergence on             energy=1.00D-06.
 No special actions if energy rises.
 Defaulting to unpruned grid for atomic number  40.
 Defaulting to unpruned grid for atomic number  40.
 Defaulting to unpruned grid for atomic number  40.
 Defaulting to unpruned grid for atomic number  40.
 Defaulting to unpruned grid for atomic number  40.
 Defaulting to unpruned grid for atomic number  40.
 Defaulting to unpruned grid for atomic number  40.
 Defaulting to unpruned grid for atomic number  40.
 Defaulting to unpruned grid for atomic number  40.
 Defaulting to unpruned grid for atomic number  40.
 Defaulting to unpruned grid for atomic number  40.
 Defaulting to unpruned grid for atomic number  40.
 Defaulting to unpruned grid for atomic number  40.
 Defaulting to unpruned grid for atomic number  40.
 Defaulting to unpruned grid for atomic number  40.
 Defaulting to unpruned grid for atomic number  40.
 SCF Done:  E(RB3LYP) =  -867.127694731     A.U. after   13 cycles
            NFock= 13  Conv=0.51D-08     -V/T= 2.0439

 **********************************************************************

            Population analysis using the SCF Density.

 **********************************************************************

 Orbital symmetries:
       Occupied  (A) (A) (A) (A) (A) (A) (A) (A) (A) (A) (A) (A)
                 (A) (A) (A) (A) (A) (A) (A) (A) (A) (A) (A) (A)
                 (A) (A) (A) (A) (A) (A) (A) (A) (A) (A) (A) (A)
                 (A) (A) (A) (A) (A) (A) (A) (A)
       Virtual   (A) (A) (A) (A) (A) (A) (A) (A) (A) (A) (A) (A)
                 (A) (A) (A) (A) (A) (A) (A) (A) (A) (A) (A) (A)
                 (A) (A) (A) (A) (A) (A) (A) (A) (A) (A) (A) (A)
                 (A) (A) (A) (A) (A) (A) (A) (A) (A) (A) (A) (A)
                 (A) (A) (A) (A) (A) (A) (A) (A) (A) (A) (A) (A)
                 (A) (A) (A) (A) (A) (A) (A) (A) (A) (A) (A) (A)
                 (A) (A) (A) (A) (A) (A) (A) (A) (A) (A) (A) (A)
                 (A) (A) (A) (A) (A) (A) (A) (A) (A) (A) (A) (A)
                 (A) (A) (A) (A) (A) (A) (A) (A) (A) (A) (A) (A)
                 (A) (A) (A) (A) (A) (A) (A) (A) (A) (A) (A) (A)
                 (A) (A) (A) (A) (A) (A) (A) (A) (A) (A) (A) (A)
                 (A) (A) (A) (A) (A) (A) (A) (A) (A) (A) (A) (A)
                 (A) (A) (A) (A) (A) (A) (A) (A) (A) (A) (A) (A)
                 (A) (A) (A) (A) (A) (A) (A) (A) (A) (A) (A) (A)
                 (A) (A) (A) (A) (A) (A) (A) (A) (A) (A) (A) (A)
                 (A) (A) (A) (A) (A) (A) (A) (A) (A) (A) (A) (A)
                 (A) (A) (A) (A) (A) (A) (A) (A) (A) (A) (A) (A)
                 (A) (A) (A) (A) (A) (A) (A) (A) (A) (A) (A) (A)
                 (A) (A) (A) (A) (A) (A)
 The electronic state is 1-A.
 Alpha  occ. eigenvalues --  -66.19945 -19.15207 -19.15121 -19.14817 -19.14462
 Alpha  occ. eigenvalues --  -19.14425 -19.14338 -19.13212  -5.34035  -3.70001
 Alpha  occ. eigenvalues --   -3.69997  -3.69954  -2.11332  -1.27631  -1.27536
 Alpha  occ. eigenvalues --   -1.27216  -1.02754  -0.99571  -0.99371  -0.96729
 Alpha  occ. eigenvalues --   -0.95527  -0.95478  -0.94106  -0.57449  -0.52248
 Alpha  occ. eigenvalues --   -0.51527  -0.50458  -0.49773  -0.49739  -0.45683
 Alpha  occ. eigenvalues --   -0.39573  -0.37878  -0.37197  -0.36096  -0.35692
 Alpha  occ. eigenvalues --   -0.34683  -0.34243  -0.33822  -0.33062  -0.32842
 Alpha  occ. eigenvalues --   -0.32092  -0.31398  -0.31225  -0.30635
 Alpha virt. eigenvalues --   -0.02998  -0.01294  -0.00809  -0.00595   0.00205
 Alpha virt. eigenvalues --    0.00293   0.00998   0.01282   0.01668   0.02233
 Alpha virt. eigenvalues --    0.02489   0.02888   0.03142   0.03240   0.03284
 Alpha virt. eigenvalues --    0.04181   0.04475   0.04598   0.05168   0.05803
 Alpha virt. eigenvalues --    0.06917   0.09055   0.09482   0.09749   0.10082
 Alpha virt. eigenvalues --    0.10113   0.11084   0.12531   0.13644   0.13731
 Alpha virt. eigenvalues --    0.14740   0.15367   0.15916   0.16124   0.17956
 Alpha virt. eigenvalues --    0.18353   0.18544   0.18745   0.19459   0.19650
 Alpha virt. eigenvalues --    0.20073   0.20531   0.21273   0.21738   0.22322
 Alpha virt. eigenvalues --    0.22875   0.24270   0.24968   0.26083   0.26266
 Alpha virt. eigenvalues --    0.26768   0.27322   0.27846   0.28311   0.28762
 Alpha virt. eigenvalues --    0.29272   0.29405   0.29733   0.29946   0.30400
 Alpha virt. eigenvalues --    0.31080   0.32631   0.34255   0.34615   0.34792
 Alpha virt. eigenvalues --    0.35525   0.35676   0.37731   0.38123   0.38718
 Alpha virt. eigenvalues --    0.41269   0.44054   0.44424   0.46639   0.47414
 Alpha virt. eigenvalues --    0.47918   0.49659   0.50939   0.51186   0.52456
 Alpha virt. eigenvalues --    0.54528   0.57768   0.58244   0.60505   0.60786
 Alpha virt. eigenvalues --    0.61104   0.62456   0.63293   0.64150   0.64684
 Alpha virt. eigenvalues --    0.65308   0.67918   0.68866   0.72317   0.73328
 Alpha virt. eigenvalues --    0.75496   0.76131   0.77114   0.78361   0.82620
 Alpha virt. eigenvalues --    0.85280   0.86326   0.96197   0.97766   0.98990
 Alpha virt. eigenvalues --    1.01581   1.02736   1.04845   1.05689   1.06523
 Alpha virt. eigenvalues --    1.07420   1.18580   1.20069   1.20851   1.21465
 Alpha virt. eigenvalues --    1.21758   1.22528   1.23180   1.23637   1.24347
 Alpha virt. eigenvalues --    1.25606   1.26056   1.27204   1.27951   1.28402
 Alpha virt. eigenvalues --    1.29001   1.30233   1.31200   1.31615   1.32448
 Alpha virt. eigenvalues --    1.32969   1.36793   1.42547   1.43659   1.45759
 Alpha virt. eigenvalues --    1.49308   1.53639   1.57110   1.59761   1.61052
 Alpha virt. eigenvalues --    1.62794   1.63600   1.63748   1.64132   1.67987
 Alpha virt. eigenvalues --    1.69028   1.71530   1.72227   1.72679   1.73048
 Alpha virt. eigenvalues --    1.73655   1.74703   1.75096   1.76450   1.77492
 Alpha virt. eigenvalues --    1.78960   1.80369   1.82805   1.83720   1.84351
 Alpha virt. eigenvalues --    1.85833   1.88162   1.90868   1.91286   1.92490
 Alpha virt. eigenvalues --    1.93331   1.93725   1.94479   1.95838   1.96339
 Alpha virt. eigenvalues --    1.98529   1.98975   2.00608   2.01975   2.05740
 Alpha virt. eigenvalues --    2.06872   2.08155   2.10101   2.14966   2.18396
 Alpha virt. eigenvalues --    2.18943   2.20383   2.22219   2.27751   2.32104
 Alpha virt. eigenvalues --    2.34955   2.41819   2.42322   2.43218   2.44939
 Alpha virt. eigenvalues --    2.51746   2.57748   2.58644   2.62725   2.63539
 Alpha virt. eigenvalues --    2.64376   2.66530   2.68041   2.69080   2.73178
 Alpha virt. eigenvalues --    2.78204   2.80103   2.80754   2.83696   2.87544
 Alpha virt. eigenvalues --    2.90474   2.90871   2.91331   2.92581   2.93627
 Alpha virt. eigenvalues --    3.02854   3.19768   3.47593   3.48298   3.51872
 Alpha virt. eigenvalues --    3.53980   3.56245   3.95174   4.13271   4.14754
 Alpha virt. eigenvalues --    4.18397  31.15159
          Condensed to atoms (all electrons):
               1          2          3          4          5          6
     1  Zr  10.423369   0.124010  -0.025766  -0.011490  -0.063076  -0.042841
     2  Si   0.124010  12.853043  -0.652186  -0.073246  -0.098173   0.000539
     3  O   -0.025766  -0.652186   8.946986   0.135176   0.252759   0.106801
     4  O   -0.011490  -0.073246   0.135176   8.571648  -0.027256   0.017689
     5  O   -0.063076  -0.098173   0.252759  -0.027256   8.505711   0.031881
     6  O   -0.042841   0.000539   0.106801   0.017689   0.031881   8.520401
     7  H   -0.002207   0.025353  -0.002454  -0.006543   0.245126   0.006307
     8  H    0.001294   0.063000  -0.022029   0.006853  -0.006472   0.232051
     9  H   -0.002627   0.038021   0.008547   0.221476  -0.005711  -0.005820
    10  O    0.037807  -0.013530  -0.024665   0.000619   0.000748   0.001108
    11  H   -0.086899   0.000883  -0.000967   0.000002   0.000003   0.000008
    12  O    0.042463  -0.013893  -0.027139   0.000206   0.001725   0.000364
    13  H   -0.086590   0.000863  -0.000882   0.000002   0.000003   0.000001
    14  O    0.030236  -0.020681  -0.030377   0.001565   0.000844   0.000068
    15  H   -0.090547   0.000969  -0.000908   0.000031   0.000003   0.000003
               7          8          9         10         11         12
     1  Zr  -0.002207   0.001294  -0.002627   0.037807  -0.086899   0.042463
     2  Si   0.025353   0.063000   0.038021  -0.013530   0.000883  -0.013893
     3  O   -0.002454  -0.022029   0.008547  -0.024665  -0.000967  -0.027139
     4  O   -0.006543   0.006853   0.221476   0.000619   0.000002   0.000206
     5  O    0.245126  -0.006472  -0.005711   0.000748   0.000003   0.001725
     6  O    0.006307   0.232051  -0.005820   0.001108   0.000008   0.000364
     7  H    0.370376   0.000063   0.000092   0.000033  -0.000000  -0.000115
     8  H    0.000063   0.359112   0.000052   0.000017   0.000000  -0.000008
     9  H    0.000092   0.000052   0.372302   0.000000  -0.000000  -0.000012
    10  O    0.000033   0.000017   0.000000   8.598158   0.325794  -0.033464
    11  H   -0.000000   0.000000  -0.000000   0.325794   0.382315  -0.000823
    12  O   -0.000115  -0.000008  -0.000012  -0.033464  -0.000823   8.593710
    13  H   -0.000000  -0.000000  -0.000000  -0.000812  -0.000008   0.325523
    14  O   -0.000008   0.000001  -0.000040  -0.033627  -0.001261  -0.036093
    15  H    0.000000  -0.000000  -0.000000  -0.000687  -0.000008  -0.000923
              13         14         15
     1  Zr  -0.086590   0.030236  -0.090547
     2  Si   0.000863  -0.020681   0.000969
     3  O   -0.000882  -0.030377  -0.000908
     4  O    0.000002   0.001565   0.000031
     5  O    0.000003   0.000844   0.000003
     6  O    0.000001   0.000068   0.000003
     7  H   -0.000000  -0.000008   0.000000
     8  H   -0.000000   0.000001  -0.000000
     9  H   -0.000000  -0.000040  -0.000000
    10  O   -0.000812  -0.033627  -0.000687
    11  H   -0.000008  -0.001261  -0.000008
    12  O    0.325523  -0.036093  -0.000923
    13  H    0.382013  -0.001398  -0.000011
    14  O   -0.001398   8.609211   0.331339
    15  H   -0.000011   0.331339   0.379557
 Mulliken charges:
               1
     1  Zr   1.752865
     2  Si   1.765027
     3  O   -0.662894
     4  O   -0.836733
     5  O   -0.838114
     6  O   -0.868559
     7  H    0.363977
     8  H    0.366067
     9  H    0.373721
    10  O   -0.857498
    11  H    0.380960
    12  O   -0.851520
    13  H    0.381296
    14  O   -0.849778
    15  H    0.381182
 Sum of Mulliken charges =  -0.00000
 Mulliken charges with hydrogens summed into heavy atoms:
               1
     1  Zr   1.752865
     2  Si   1.765027
     3  O   -0.662894
     4  O   -0.463012
     5  O   -0.474137
     6  O   -0.502492
    10  O   -0.476539
    12  O   -0.470224
    14  O   -0.468595
 Electronic spatial extent (au):  <R**2>=           2274.2536
 Charge=             -0.0000 electrons
 Dipole moment (field-independent basis, Debye):
    X=              2.0854    Y=             -0.8552    Z=              0.3667  Tot=              2.2835
 Quadrupole moment (field-independent basis, Debye-Ang):
   XX=            -68.8884   YY=            -68.6787   ZZ=            -68.1033
   XY=              0.0922   XZ=             -0.0388   YZ=              0.7429
 Traceless Quadrupole moment (field-independent basis, Debye-Ang):
   XX=             -0.3316   YY=             -0.1219   ZZ=              0.4535
   XY=              0.0922   XZ=             -0.0388   YZ=              0.7429
 Octapole moment (field-independent basis, Debye-Ang**2):
  XXX=             45.2919  YYY=              7.6415  ZZZ=             17.7478  XYY=             24.5505
  XXY=             11.1059  XXZ=             -0.4791  XZZ=             31.0324  YZZ=            -16.3033
  YYZ=            -16.8515  XYZ=             -4.7756
 Hexadecapole moment (field-independent basis, Debye-Ang**3):
 XXXX=          -1898.6739 YYYY=           -369.7330 ZZZZ=           -350.3792 XXXY=            -97.9153
 XXXZ=             17.5657 YYYX=             10.2950 YYYZ=             -9.9271 ZZZX=             28.0248
 ZZZY=              3.7156 XXYY=           -332.0044 XXZZ=           -347.2932 YYZZ=           -108.3130
 XXYZ=             47.6911 YYXZ=            -31.1059 ZZXY=             20.9316
 N-N= 6.303063652868D+02 E-N=-3.298127958477D+03  KE= 8.306788106598D+02
 PrsmSu:  requested number of processors reduced to:   2 ShMem   1 Linda.
 PrsmSu:  requested number of processors reduced to:  10 ShMem   1 Linda.
   1 Symmetry operations used in ECPInt.
 ECPInt:  NShTT=    3321 NPrTT=   20810 LenC2=    3164 LenP2D=   14949.
 LDataN:  DoStor=T MaxTD1= 9 Len=  602
 Calling FoFJK, ICntrl=      2127 FMM=F ISym2X=0 I1Cent= 0 IOpClX= 0 NMat=1 NMatS=1 NMatT=0.
 CoulSu:  requested number of processors reduced to:  10 ShMem   1 Linda.
 Defaulting to unpruned grid for atomic number  40.
 Defaulting to unpruned grid for atomic number  40.
 Defaulting to unpruned grid for atomic number  40.
 Defaulting to unpruned grid for atomic number  40.
 Defaulting to unpruned grid for atomic number  40.
 Defaulting to unpruned grid for atomic number  40.
 Defaulting to unpruned grid for atomic number  40.
 Defaulting to unpruned grid for atomic number  40.
 Defaulting to unpruned grid for atomic number  40.
 Defaulting to unpruned grid for atomic number  40.
 Defaulting to unpruned grid for atomic number  40.
 Defaulting to unpruned grid for atomic number  40.
 Defaulting to unpruned grid for atomic number  40.
 Defaulting to unpruned grid for atomic number  40.
 Defaulting to unpruned grid for atomic number  40.
 Defaulting to unpruned grid for atomic number  40.
 ***** Axes restored to original set *****
 -------------------------------------------------------------------
 Center     Atomic                   Forces (Hartrees/Bohr)
 Number     Number              X              Y              Z
 -------------------------------------------------------------------
      1       40          -0.001774606   -0.000089688   -0.000256672
      2       14           0.000044936    0.001631845   -0.000036399
      3        8           0.001406709   -0.000730261    0.000167100
      4        8           0.000194808   -0.000499539   -0.000102944
      5        8           0.000006817   -0.000413219    0.000102607
      6        8           0.000068757   -0.000181502    0.000030646
      7        1          -0.000149394    0.000044019    0.000097463
      8        1          -0.000006732    0.000010128   -0.000014871
      9        1           0.000026854   -0.000062004   -0.000051225
     10        8           0.000016059    0.000053232    0.000162095
     11        1           0.000026554   -0.000011703   -0.000036116
     12        8          -0.000058841   -0.000158224   -0.000036906
     13        1           0.000037922    0.000026088    0.000039249
     14        8           0.000167142    0.000395281   -0.000006680
     15        1          -0.000006984   -0.000014453   -0.000057348
 -------------------------------------------------------------------
 Cartesian Forces:  Max     0.001774606 RMS     0.000453176

 GradGradGradGradGradGradGradGradGradGradGradGradGradGradGradGradGradGrad
 Berny optimization.
 FormGI is forming the generalized inverse of G from B-inverse, IUseBI=4.
 Internal  Forces:  Max     0.001550496 RMS     0.000303145
 Search for a local minimum.
 Step number   1 out of a maximum of   66
 All quantities printed in internal units (Hartrees-Bohrs-Radians)
 Mixed Optimization -- En-DIIS/RFO-DIIS
 Second derivative matrix not updated -- first step.
 ITU=  0
     Eigenvalues ---    0.00230   0.01596   0.01596   0.01597   0.01597
     Eigenvalues ---    0.01598   0.01598   0.03222   0.03522   0.03617
     Eigenvalues ---    0.03636   0.07226   0.08150   0.09075   0.09926
     Eigenvalues ---    0.12549   0.16000   0.16000   0.16000   0.19232
     Eigenvalues ---    0.19489   0.20546   0.21482   0.21527   0.21945
     Eigenvalues ---    0.25000   0.25000   0.25000   0.40909   0.41958
     Eigenvalues ---    0.42174   0.46152   0.54665   0.54703   0.54723
     Eigenvalues ---    0.56111   0.56113   0.561381000.000001000.00000
     Eigenvalues --- 1000.000001000.000001000.000001000.000001000.00000
     Eigenvalues --- 1000.000001000.000001000.000001000.000001000.00000
     Eigenvalues --- 1000.000001000.000001000.000001000.000001000.00000
     Eigenvalues --- 1000.00000
 RFO step:  Lambda=-2.34896753D-05 EMin= 2.30000000D-03
 Linear search not attempted -- first point.
 Iteration  1 RMS(Cart)=  0.01225990 RMS(Int)=  0.00003336
 Iteration  2 RMS(Cart)=  0.00006342 RMS(Int)=  0.00000958
 Iteration  3 RMS(Cart)=  0.00000000 RMS(Int)=  0.00000958
 Iteration  1 RMS(Cart)=  0.00001425 RMS(Int)=  0.00000766
 Iteration  2 RMS(Cart)=  0.00001163 RMS(Int)=  0.00000821
 Iteration  3 RMS(Cart)=  0.00000949 RMS(Int)=  0.00000936
 Iteration  4 RMS(Cart)=  0.00000775 RMS(Int)=  0.00001062
 Iteration  5 RMS(Cart)=  0.00000632 RMS(Int)=  0.00001179
 Iteration  6 RMS(Cart)=  0.00000516 RMS(Int)=  0.00001282
 Iteration  7 RMS(Cart)=  0.00000421 RMS(Int)=  0.00001370
 Iteration  8 RMS(Cart)=  0.00000344 RMS(Int)=  0.00001443
 Iteration  9 RMS(Cart)=  0.00000280 RMS(Int)=  0.00001505
 Iteration 10 RMS(Cart)=  0.00000229 RMS(Int)=  0.00001555
 Iteration 11 RMS(Cart)=  0.00000187 RMS(Int)=  0.00001597
 Iteration 12 RMS(Cart)=  0.00000152 RMS(Int)=  0.00001631
 Iteration 13 RMS(Cart)=  0.00000124 RMS(Int)=  0.00001659
 Iteration 14 RMS(Cart)=  0.00000102 RMS(Int)=  0.00001682
 Iteration 15 RMS(Cart)=  0.00000083 RMS(Int)=  0.00001701
 Variable       Old X    -DE/DX   Delta X   Delta X   Delta X     New X
                                 (Linear)    (Quad)   (Total)
    R1        3.72697  -0.00155   0.00000  -0.00802  -0.00802   3.71895
    R2        3.65948  -0.00009   0.00000  -0.00042  -0.00042   3.65906
    R3        3.66086   0.00001   0.00000   0.00006   0.00006   3.66092
    R4        3.64668   0.00041   0.00000   0.00185   0.00185   3.64853
    R5        3.07642  -0.00021   0.00000  -0.00042  -0.00041   3.07601
    R6        3.12402  -0.00061   0.00000  -0.00145  -0.00145   3.12257
    R7        3.14036   0.00044   0.00000   0.00108   0.00108   3.14144
    R8        3.12676  -0.00003   0.00000  -0.00008  -0.00008   3.12668
    R9        1.82097  -0.00003   0.00000  -0.00006  -0.00006   1.82091
   R10        1.82078  -0.00002   0.00000  -0.00004  -0.00004   1.82074
   R11        1.82131  -0.00000   0.00000  -0.00000  -0.00000   1.82131
   R12        1.80835   0.00004   0.00000   0.00008   0.00008   1.80842
   R13        1.80858   0.00005   0.00000   0.00009   0.00009   1.80867
   R14        1.80856   0.00000   0.00000   0.00000   0.00000   1.80857
    A1        1.88835   0.00017   0.00000   0.00070   0.00071   1.88905
    A2        1.88384  -0.00022   0.00000  -0.00103  -0.00103   1.88281
    A3        1.91625   0.00028   0.00000   0.00125   0.00123   1.91748
    A4        1.92387  -0.00026   0.00000  -0.00128  -0.00125   1.92262
    A5        1.92200  -0.00002   0.00000   0.00022   0.00021   1.92221
    A6        1.92870   0.00005   0.00000   0.00014   0.00013   1.92883
    A7        0.04780   0.00051   0.00000   0.00000   0.00000   0.04781
    A8        1.85659   0.00010   0.00000   0.00078   0.00078   1.85736
    A9        1.91681   0.00006   0.00000   0.00022   0.00022   1.91703
   A10        2.00442  -0.00014   0.00000  -0.00075  -0.00075   2.00367
   A11        1.98570  -0.00016   0.00000  -0.00062  -0.00062   1.98508
   A12        1.86878   0.00026   0.00000   0.00113   0.00112   1.86989
   A13        1.83492  -0.00014   0.00000  -0.00080  -0.00079   1.83413
   A14        2.02425  -0.00014   0.00000  -0.00088  -0.00088   2.02337
   A15        2.02688   0.00012   0.00000   0.00077   0.00077   2.02764
   A16        2.01602   0.00003   0.00000   0.00021   0.00021   2.01623
   A17        3.20784   0.00100   0.00000   0.00326   0.00313   3.21097
   A18        3.27833   0.00001   0.00000   0.00035   0.00035   3.27868
   A19        3.33262   0.00005   0.00000   0.00283   0.00283   3.33545
   A20        3.06351   0.00001   0.00000   0.00047   0.00047   3.06398
   A21        3.06907  -0.00040   0.00000   0.00457   0.00464   3.07372
   A22        3.03408  -0.00003   0.00000  -0.00159  -0.00159   3.03249
   A23        3.18078   0.00003   0.00000   0.00181   0.00181   3.18259
   A24        3.11836   0.00010   0.00000   0.00642   0.00642   3.12478
    D1       -2.88705   0.00001   0.00000   0.01254   0.01252  -2.87452
    D2        1.24179  -0.00001   0.00000   0.01111   0.01110   1.25289
    D3       -0.85176  -0.00002   0.00000   0.01355   0.01355  -0.83821
    D4        1.29242   0.00006   0.00000   0.01375   0.01375   1.30617
    D5       -0.86193   0.00004   0.00000   0.01232   0.01233  -0.84960
    D6       -2.95548   0.00003   0.00000   0.01476   0.01478  -2.94070
    D7       -0.79471   0.00007   0.00000   0.01243   0.01243  -0.78229
    D8       -2.94907   0.00005   0.00000   0.01101   0.01100  -2.93806
    D9        1.24057   0.00004   0.00000   0.01345   0.01346   1.25402
   D10        2.89578  -0.00001   0.00000  -0.00033  -0.00034   2.89544
   D11       -1.27480   0.00004   0.00000   0.00010   0.00010  -1.27470
   D12        0.74459  -0.00005   0.00000  -0.00051  -0.00050   0.74409
   D13        0.61661   0.00019   0.00000   0.00336   0.00335   0.61996
   D14       -1.46199   0.00012   0.00000   0.00262   0.00261  -1.45938
   D15        2.78200  -0.00003   0.00000   0.00208   0.00209   2.78409
   D16        1.54676  -0.00011   0.00000  -0.00070  -0.00069   1.54608
   D17       -2.67952   0.00012   0.00000   0.00061   0.00061  -2.67891
   D18       -0.56200  -0.00001   0.00000   0.00004   0.00003  -0.56196
         Item               Value     Threshold  Converged?
 Maximum Force            0.001564     0.000450     NO 
 RMS     Force            0.000259     0.000300     YES
 Maximum Displacement     0.030548     0.001800     NO 
 RMS     Displacement     0.012253     0.001200     NO 
 Predicted change in Energy=-1.161165D-05
 GradGradGradGradGradGradGradGradGradGradGradGradGradGradGradGradGradGrad

                          Input orientation:                          
 ---------------------------------------------------------------------
 Center     Atomic      Atomic             Coordinates (Angstroms)
 Number     Number       Type             X           Y           Z
 ---------------------------------------------------------------------
      1         40           0        1.375789   -0.013473   -0.009363
      2         14           0       -2.199001   -0.365661    0.032363
      3          8           0       -0.573372   -0.283180    0.022176
      4          8           0       -2.732807    1.025806    0.746000
      5          8           0       -2.688805   -1.748873    0.813599
      6          8           0       -2.899292   -0.445538   -1.464571
      7          1           0       -2.151588   -2.026186    1.563808
      8          1           0       -3.011398   -1.332847   -1.823758
      9          1           0       -3.669937    1.222180    0.637765
     10          8           0        2.146917   -1.307608   -1.225831
     11          1           0        2.650822   -1.841484   -1.839720
     12          8           0        2.045297   -0.302702    1.785392
     13          1           0        2.515331   -0.330038    2.618684
     14          8           0        1.780541    1.778975   -0.601801
     15          1           0        1.912263    2.687799   -0.871311
 ---------------------------------------------------------------------
                    Distance matrix (angstroms):
                    1          2          3          4          5
     1  Zr   0.000000
     2  Si   3.592339   0.000000
     3  O    1.967985   1.627752   0.000000
     4  O    4.304792   1.652395   2.626886   0.000000
     5  O    4.495531   1.662381   2.692520   2.775851   0.000000
     6  O    4.536588   1.654569   2.765263   2.660676   2.633067
     7  H    4.355257   2.259405   2.811666   3.212675   0.963493
     8  H    4.927493   2.245134   3.233148   3.499216   2.689386
     9  H    5.234975   2.247534   3.497682   0.963582   3.133799
    10  O    1.936291   4.621398   3.163375   5.757139   5.266706
    11  H    2.884015   5.404029   4.036136   6.625011   5.963245
    12  O    1.937276   4.592508   3.157014   5.067105   5.044552
    13  H    2.881909   5.377290   4.035361   5.734825   5.688098
    14  O    1.930719   4.564908   3.191040   4.770130   5.867207
    15  H    2.885763   5.200263   3.975351   5.191781   6.610053
                    6          7          8          9         10
     6  O    0.000000
     7  H    3.496939   0.000000
     8  H    0.963794   3.563088   0.000000
     9  H    2.791952   3.703353   3.608453   0.000000
    10  O    5.124879   5.174513   5.192915   6.611249   0.000000
    11  H    5.735257   5.889079   5.685042   7.448219   0.956976
    12  O    5.918751   4.542393   6.297406   6.025464   3.176103
    13  H    6.782658   5.076398   7.161400   6.677647   3.983927
    14  O    5.252968   5.884790   5.842884   5.617318   3.170275
    15  H    5.772419   6.683288   6.427689   5.965426   4.017963
                   11         12         13         14         15
    11  H    0.000000
    12  O    3.984463   0.000000
    13  H    4.709585   0.957108   0.000000
    14  O    3.923972   3.178390   3.919103   0.000000
    15  H    4.690170   4.002358   4.653074   0.957052   0.000000
 Stoichiometry    H6O7SiZr
 Framework group  C1[X(H6O7SiZr)]
 Deg. of freedom    39
 Full point group                 C1      NOp   1
 Largest Abelian subgroup         C1      NOp   1
 Largest concise Abelian subgroup C1      NOp   1
                         Standard orientation:                         
 ---------------------------------------------------------------------
 Center     Atomic      Atomic             Coordinates (Angstroms)
 Number     Number       Type             X           Y           Z
 ---------------------------------------------------------------------
      1         40           0        1.390300   -0.002014   -0.010384
      2         14           0       -2.201957    0.006712    0.012270
      3          8           0       -0.576201   -0.073786    0.015855
      4          8           0       -2.597563    1.488899    0.626294
      5          8           0       -2.831702   -1.265661    0.877138
      6          8           0       -2.898991   -0.102863   -1.484305
      7          1           0       -2.328801   -1.544333    1.650282
      8          1           0       -3.097443   -0.996609   -1.785528
      9          1           0       -3.509777    1.769852    0.494298
     10          8           0        2.034366   -1.444746   -1.129726
     11          1           0        2.485497   -2.065884   -1.701102
     12          8           0        2.018244   -0.235943    1.807307
     13          1           0        2.478878   -0.254208    2.646078
     14          8           0        1.975385    1.697713   -0.714855
     15          1           0        2.198752    2.568897   -1.042107
 ---------------------------------------------------------------------
 Rotational constants (GHZ):           1.6237914           0.4701869           0.4669842
 Basis read from rwf:  (5D, 7F)
 Pseudo-potential data read from rwf file.
 There are   300 symmetry adapted cartesian basis functions of A   symmetry.
 There are   266 symmetry adapted basis functions of A   symmetry.
   266 basis functions,   576 primitive gaussians,   300 cartesian basis functions
    44 alpha electrons       44 beta electrons
       nuclear repulsion energy       630.5427431001 Hartrees.
 NAtoms=   15 NActive=   15 NUniq=   15 SFac= 1.00D+00 NAtFMM=   60 NAOKFM=F Big=F
 Integral buffers will be    131072 words long.
 Raffenetti 2 integral format.
 Two-electron integral symmetry is turned on.
 Nuclear repulsion after empirical dispersion term =      630.5325491808 Hartrees.
 One-electron integrals computed using PRISM.
 PrsmSu:  requested number of processors reduced to:   4 ShMem   1 Linda.
   1 Symmetry operations used in ECPInt.
 ECPInt:  NShTT=    3321 NPrTT=   20810 LenC2=    3164 LenP2D=   14950.
 LDataN:  DoStor=T MaxTD1= 8 Len=  415
 NBasis=   266 RedAO= T EigKep=  1.01D-04  NBF=   266
 NBsUse=   266 1.00D-06 EigRej= -1.00D+00 NBFU=   266
 Defaulting to unpruned grid for atomic number  40.
 Initial guess from the checkpoint file:  "/localscratch/sarashs.35132323.0/Gau-13091.chk"
 B after Tr=    -0.000000   -0.000000    0.000000
         Rot=    0.999967   -0.008107    0.000066    0.000075 Ang=  -0.93 deg.
 ExpMin= 1.01D-02 ExpMax= 1.61D+04 ExpMxC= 2.43D+03 IAcc=3 IRadAn=         5 AccDes= 0.00D+00
 Harris functional with IExCor=  402 and IRadAn=       5 diagonalized for initial guess.
 HarFok:  IExCor=  402 AccDes= 0.00D+00 IRadAn=         5 IDoV= 1 UseB2=F ITyADJ=14
 ICtDFT=  3500011 ScaDFX=  1.000000  1.000000  1.000000  1.000000
 Defaulting to unpruned grid for atomic number  40.
 FoFCou: FMM=F IPFlag=           0 FMFlag=      100000 FMFlg1=           0
         NFxFlg=           0 DoJE=T BraDBF=F KetDBF=T FulRan=T
         wScrn=  0.000000 ICntrl=       500 IOpCl=  0 I1Cent=   200000004 NGrid=           0
         NMat0=    1 NMatS0=      1 NMatT0=    0 NMatD0=    1 NMtDS0=    0 NMtDT0=    0
 Petite list used in FoFCou.
 Requested convergence on RMS density matrix=1.00D-08 within 128 cycles.
 Requested convergence on MAX density matrix=1.00D-06.
 Requested convergence on             energy=1.00D-06.
 No special actions if energy rises.
 Defaulting to unpruned grid for atomic number  40.
 Defaulting to unpruned grid for atomic number  40.
 Defaulting to unpruned grid for atomic number  40.
 Defaulting to unpruned grid for atomic number  40.
 Defaulting to unpruned grid for atomic number  40.
 Defaulting to unpruned grid for atomic number  40.
 Defaulting to unpruned grid for atomic number  40.
 Defaulting to unpruned grid for atomic number  40.
 Defaulting to unpruned grid for atomic number  40.
 Defaulting to unpruned grid for atomic number  40.
 Defaulting to unpruned grid for atomic number  40.
 Defaulting to unpruned grid for atomic number  40.
 Defaulting to unpruned grid for atomic number  40.
 Defaulting to unpruned grid for atomic number  40.
 Defaulting to unpruned grid for atomic number  40.
 Defaulting to unpruned grid for atomic number  40.
 SCF Done:  E(RB3LYP) =  -867.127709145     A.U. after    9 cycles
            NFock=  9  Conv=0.41D-08     -V/T= 2.0439
 PrsmSu:  requested number of processors reduced to:   2 ShMem   1 Linda.
 PrsmSu:  requested number of processors reduced to:  10 ShMem   1 Linda.
   1 Symmetry operations used in ECPInt.
 ECPInt:  NShTT=    3321 NPrTT=   20810 LenC2=    3164 LenP2D=   14950.
 LDataN:  DoStor=T MaxTD1= 9 Len=  602
 Calling FoFJK, ICntrl=      2127 FMM=F ISym2X=0 I1Cent= 0 IOpClX= 0 NMat=1 NMatS=1 NMatT=0.
 CoulSu:  requested number of processors reduced to:  10 ShMem   1 Linda.
 Defaulting to unpruned grid for atomic number  40.
 Defaulting to unpruned grid for atomic number  40.
 Defaulting to unpruned grid for atomic number  40.
 Defaulting to unpruned grid for atomic number  40.
 Defaulting to unpruned grid for atomic number  40.
 Defaulting to unpruned grid for atomic number  40.
 Defaulting to unpruned grid for atomic number  40.
 Defaulting to unpruned grid for atomic number  40.
 Defaulting to unpruned grid for atomic number  40.
 Defaulting to unpruned grid for atomic number  40.
 Defaulting to unpruned grid for atomic number  40.
 Defaulting to unpruned grid for atomic number  40.
 Defaulting to unpruned grid for atomic number  40.
 Defaulting to unpruned grid for atomic number  40.
 Defaulting to unpruned grid for atomic number  40.
 Defaulting to unpruned grid for atomic number  40.
 ***** Axes restored to original set *****
 -------------------------------------------------------------------
 Center     Atomic                   Forces (Hartrees/Bohr)
 Number     Number              X              Y              Z
 -------------------------------------------------------------------
      1       40           0.000065054    0.000528472   -0.000276621
      2       14          -0.000342081    0.000804031   -0.000044828
      3        8          -0.000026843   -0.000850667    0.000171705
      4        8           0.000138978   -0.000199034   -0.000038799
      5        8           0.000133304   -0.000147865   -0.000062803
      6        8           0.000074331   -0.000081594    0.000035290
      7        1          -0.000118810    0.000057060    0.000112593
      8        1          -0.000006953    0.000008461    0.000003412
      9        1          -0.000020851    0.000001594   -0.000016292
     10        8           0.000070137   -0.000090982   -0.000043355
     11        1          -0.000006947    0.000001469   -0.000001919
     12        8          -0.000013557   -0.000144822    0.000154707
     13        1           0.000012934    0.000023079   -0.000011222
     14        8           0.000058738    0.000122388    0.000050917
     15        1          -0.000017434   -0.000031590   -0.000032783
 -------------------------------------------------------------------
 Cartesian Forces:  Max     0.000850667 RMS     0.000216648

 GradGradGradGradGradGradGradGradGradGradGradGradGradGradGradGradGradGrad
 Berny optimization.
 Using GEDIIS/GDIIS optimizer.
 FormGI is forming the generalized inverse of G from B-inverse, IUseBI=4.
 Internal  Forces:  Max     0.000871708 RMS     0.000165990
 Search for a local minimum.
 Step number   2 out of a maximum of   66
 All quantities printed in internal units (Hartrees-Bohrs-Radians)
 Mixed Optimization -- En-DIIS/RFO-DIIS
 Swapping is turned off.
 Update second derivatives using D2CorX and points    1    2
 DE= -1.44D-05 DEPred=-1.16D-05 R= 1.24D+00
 TightC=F SS=  1.41D+00  RLast= 4.09D-02 DXNew= 5.0454D-01 1.2263D-01
 Trust test= 1.24D+00 RLast= 4.09D-02 DXMaxT set to 3.00D-01
 ITU=  1  0
     Eigenvalues ---    0.00165   0.01506   0.01596   0.01596   0.01597
     Eigenvalues ---    0.01598   0.01601   0.02927   0.03440   0.03617
     Eigenvalues ---    0.03636   0.07197   0.08125   0.08835   0.09784
     Eigenvalues ---    0.12571   0.15909   0.16000   0.16007   0.18905
     Eigenvalues ---    0.20539   0.21063   0.21505   0.21795   0.24447
     Eigenvalues ---    0.24861   0.25000   0.27998   0.40594   0.41620
     Eigenvalues ---    0.42001   0.46872   0.54665   0.54717   0.54731
     Eigenvalues ---    0.56109   0.56123   0.561501000.000001000.00000
     Eigenvalues --- 1000.000001000.000001000.000001000.000001000.00000
     Eigenvalues --- 1000.000001000.000001000.000001000.000001000.00000
     Eigenvalues --- 1000.000001000.000001000.000001000.000001000.00000
     Eigenvalues --- 1000.00000
 En-DIIS/RFO-DIIS/Sim-DIIS IScMMF=       -3 using points:     2    1
 RFO step:  Lambda=-1.01232446D-05.
 DidBck=F Rises=F RFO-DIIS coefs:    2.56622   -1.56622
 Iteration  1 RMS(Cart)=  0.01956737 RMS(Int)=  0.00008337
 Iteration  2 RMS(Cart)=  0.00014169 RMS(Int)=  0.00002789
 Iteration  3 RMS(Cart)=  0.00000001 RMS(Int)=  0.00002789
 Iteration  1 RMS(Cart)=  0.00004375 RMS(Int)=  0.00002290
 Iteration  2 RMS(Cart)=  0.00003551 RMS(Int)=  0.00002459
 Iteration  3 RMS(Cart)=  0.00002882 RMS(Int)=  0.00002806
 Iteration  4 RMS(Cart)=  0.00002339 RMS(Int)=  0.00003184
 Iteration  5 RMS(Cart)=  0.00001898 RMS(Int)=  0.00003533
 Iteration  6 RMS(Cart)=  0.00001541 RMS(Int)=  0.00003837
 Iteration  7 RMS(Cart)=  0.00001251 RMS(Int)=  0.00004095
 Iteration  8 RMS(Cart)=  0.00001015 RMS(Int)=  0.00004309
 Iteration  9 RMS(Cart)=  0.00000824 RMS(Int)=  0.00004487
 Iteration 10 RMS(Cart)=  0.00000669 RMS(Int)=  0.00004632
 Iteration 11 RMS(Cart)=  0.00000543 RMS(Int)=  0.00004752
 Iteration 12 RMS(Cart)=  0.00000441 RMS(Int)=  0.00004850
 Iteration 13 RMS(Cart)=  0.00000358 RMS(Int)=  0.00004929
 Iteration 14 RMS(Cart)=  0.00000290 RMS(Int)=  0.00004994
 Iteration 15 RMS(Cart)=  0.00000236 RMS(Int)=  0.00005047
 Iteration 16 RMS(Cart)=  0.00000191 RMS(Int)=  0.00005090
 Iteration 17 RMS(Cart)=  0.00000155 RMS(Int)=  0.00005125
 Iteration 18 RMS(Cart)=  0.00000126 RMS(Int)=  0.00005154
 Iteration 19 RMS(Cart)=  0.00000102 RMS(Int)=  0.00005177
 Iteration 20 RMS(Cart)=  0.00000083 RMS(Int)=  0.00005195
 Variable       Old X    -DE/DX   Delta X   Delta X   Delta X     New X
                                 (Linear)    (Quad)   (Total)
    R1        3.71895   0.00022  -0.01256   0.01097  -0.00160   3.71736
    R2        3.65906   0.00011  -0.00065   0.00118   0.00053   3.65958
    R3        3.66092   0.00015   0.00010   0.00084   0.00094   3.66186
    R4        3.64853   0.00009   0.00290  -0.00169   0.00121   3.64974
    R5        3.07601   0.00012  -0.00065   0.00088   0.00024   3.07625
    R6        3.12257  -0.00023  -0.00227   0.00102  -0.00125   3.12133
    R7        3.14144   0.00010   0.00169  -0.00099   0.00070   3.14215
    R8        3.12668  -0.00006  -0.00013  -0.00009  -0.00022   3.12647
    R9        1.82091   0.00002  -0.00010   0.00013   0.00003   1.82094
   R10        1.82074   0.00001  -0.00006   0.00006  -0.00000   1.82073
   R11        1.82131  -0.00001  -0.00001  -0.00001  -0.00002   1.82129
   R12        1.80842  -0.00000   0.00012  -0.00010   0.00002   1.80844
   R13        1.80867  -0.00000   0.00015  -0.00012   0.00003   1.80870
   R14        1.80857  -0.00002   0.00000  -0.00006  -0.00005   1.80851
    A1        1.88905   0.00003   0.00110  -0.00066   0.00046   1.88952
    A2        1.88281  -0.00022  -0.00161   0.00003  -0.00156   1.88125
    A3        1.91748   0.00014   0.00193  -0.00072   0.00117   1.91866
    A4        1.92262  -0.00012  -0.00196   0.00082  -0.00107   1.92155
    A5        1.92221   0.00007   0.00033   0.00022   0.00051   1.92272
    A6        1.92883   0.00010   0.00021   0.00029   0.00045   1.92928
    A7        0.04781   0.00047   0.00000   0.00000  -0.00000   0.04781
    A8        1.85736   0.00003   0.00122  -0.00073   0.00048   1.85784
    A9        1.91703   0.00000   0.00035  -0.00024   0.00012   1.91715
   A10        2.00367  -0.00009  -0.00117   0.00018  -0.00100   2.00267
   A11        1.98508  -0.00006  -0.00097   0.00062  -0.00034   1.98473
   A12        1.86989   0.00020   0.00175  -0.00051   0.00119   1.87108
   A13        1.83413  -0.00008  -0.00124   0.00073  -0.00047   1.83366
   A14        2.02337  -0.00002  -0.00137   0.00089  -0.00049   2.02289
   A15        2.02764   0.00007   0.00120  -0.00030   0.00090   2.02855
   A16        2.01623   0.00001   0.00033  -0.00021   0.00012   2.01636
   A17        3.21097   0.00087   0.00490  -0.00125   0.00325   3.21423
   A18        3.27868  -0.00001   0.00054  -0.00129  -0.00075   3.27793
   A19        3.33545   0.00005   0.00444   0.00036   0.00480   3.34025
   A20        3.06398  -0.00001   0.00073  -0.00154  -0.00081   3.06317
   A21        3.07372  -0.00038   0.00727  -0.00184   0.00565   3.07936
   A22        3.03249  -0.00000  -0.00250   0.00163  -0.00087   3.03162
   A23        3.18259   0.00002   0.00283  -0.00044   0.00239   3.18498
   A24        3.12478   0.00007   0.01005  -0.00168   0.00837   3.13315
    D1       -2.87452   0.00006   0.01961   0.00146   0.02102  -2.85350
    D2        1.25289   0.00003   0.01738   0.00193   0.01927   1.27215
    D3       -0.83821  -0.00003   0.02122   0.00061   0.02183  -0.81638
    D4        1.30617   0.00007   0.02154   0.00103   0.02258   1.32875
    D5       -0.84960   0.00004   0.01931   0.00150   0.02082  -0.82878
    D6       -2.94070  -0.00002   0.02315   0.00018   0.02339  -2.91731
    D7       -0.78229   0.00008   0.01946   0.00137   0.02081  -0.76148
    D8       -2.93806   0.00005   0.01723   0.00184   0.01906  -2.91901
    D9        1.25402  -0.00001   0.02108   0.00052   0.02162   1.27565
   D10        2.89544   0.00001  -0.00053   0.00007  -0.00047   2.89497
   D11       -1.27470  -0.00001   0.00015  -0.00036  -0.00020  -1.27490
   D12        0.74409  -0.00002  -0.00079   0.00056  -0.00022   0.74387
   D13        0.61996   0.00014   0.00525  -0.00018   0.00506   0.62502
   D14       -1.45938   0.00014   0.00409   0.00051   0.00460  -1.45478
   D15        2.78409  -0.00001   0.00327   0.00035   0.00364   2.78773
   D16        1.54608  -0.00007  -0.00107   0.00065  -0.00039   1.54568
   D17       -2.67891   0.00005   0.00095  -0.00051   0.00043  -2.67848
   D18       -0.56196   0.00003   0.00005   0.00033   0.00037  -0.56159
         Item               Value     Threshold  Converged?
 Maximum Force            0.000229     0.000450     YES
 RMS     Force            0.000078     0.000300     YES
 Maximum Displacement     0.048749     0.001800     NO 
 RMS     Displacement     0.019547     0.001200     NO 
 Predicted change in Energy=-4.887901D-06
 GradGradGradGradGradGradGradGradGradGradGradGradGradGradGradGradGradGrad

                          Input orientation:                          
 ---------------------------------------------------------------------
 Center     Atomic      Atomic             Coordinates (Angstroms)
 Number     Number       Type             X           Y           Z
 ---------------------------------------------------------------------
      1         40           0        1.375301   -0.012704   -0.008119
      2         14           0       -2.198765   -0.365020    0.032755
      3          8           0       -0.573031   -0.281565    0.028749
      4          8           0       -2.737099    1.033518    0.727388
      5          8           0       -2.691447   -1.739577    0.828120
      6          8           0       -2.890775   -0.464596   -1.466721
      7          1           0       -2.160489   -2.006041    1.586667
      8          1           0       -3.000078   -1.356447   -1.815336
      9          1           0       -3.673908    1.227399    0.611968
     10          8           0        2.142136   -1.298257   -1.236783
     11          1           0        2.642854   -1.826775   -1.857891
     12          8           0        2.049178   -0.319248    1.782657
     13          1           0        2.525007   -0.352196    2.612466
     14          8           0        1.781035    1.784849   -0.586339
     15          1           0        1.910839    2.693831   -0.856150
 ---------------------------------------------------------------------
                    Distance matrix (angstroms):
                    1          2          3          4          5
     1  Zr   0.000000
     2  Si   3.591621   0.000000
     3  O    1.967140   1.627880   0.000000
     4  O    4.306668   1.651735   2.626924   0.000000
     5  O    4.496646   1.662753   2.693043   2.775299   0.000000
     6  O    4.531129   1.654455   2.764393   2.661216   2.632793
     7  H    4.361026   2.260322   2.814418   3.210882   0.963490
     8  H    4.920937   2.245100   3.232118   3.499505   2.688848
     9  H    5.236112   2.246627   3.497507   0.963599   3.132873
    10  O    1.936569   4.618016   3.163442   5.753440   5.274667
    11  H    2.884303   5.399309   4.035963   6.618824   5.973025
    12  O    1.937771   4.594483   3.154931   5.084488   5.040040
    13  H    2.881760   5.382294   4.034652   5.758775   5.685078
    14  O    1.931361   4.565525   3.192182   4.764863   5.867314
    15  H    2.886397   5.199574   3.975630   5.183393   6.608548
                    6          7          8          9         10
     6  O    0.000000
     7  H    3.497506   0.000000
     8  H    0.963784   3.563777   0.000000
     9  H    2.792327   3.700758   3.608617   0.000000
    10  O    5.106667   5.194748   5.174985   6.604785   0.000000
    11  H    5.712232   5.913477   5.662658   7.438391   0.956987
    12  O    5.914619   4.539271   6.286202   6.042876   3.175551
    13  H    6.781083   5.073592   7.151260   6.702512   3.982253
    14  O    5.259361   5.884591   5.851258   5.612762   3.171595
    15  H    5.779615   6.680708   6.437538   5.957785   4.016858
                   11         12         13         14         15
    11  H    0.000000
    12  O    3.984806   0.000000
    13  H    4.708754   0.957121   0.000000
    14  O    3.924717   3.179822   3.918266   0.000000
    15  H    4.687772   4.007628   4.656906   0.957024   0.000000
 Stoichiometry    H6O7SiZr
 Framework group  C1[X(H6O7SiZr)]
 Deg. of freedom    39
 Full point group                 C1      NOp   1
 Largest Abelian subgroup         C1      NOp   1
 Largest concise Abelian subgroup C1      NOp   1
                         Standard orientation:                         
 ---------------------------------------------------------------------
 Center     Atomic      Atomic             Coordinates (Angstroms)
 Number     Number       Type             X           Y           Z
 ---------------------------------------------------------------------
      1         40           0        1.389908   -0.001595   -0.010129
      2         14           0       -2.201629    0.007481    0.012710
      3          8           0       -0.575723   -0.072288    0.020475
      4          8           0       -2.600363    1.484170    0.636110
      5          8           0       -2.833608   -1.271691    0.866565
      6          8           0       -2.892768   -0.093369   -1.487082
      7          1           0       -2.335787   -1.553650    1.641799
      8          1           0       -3.089270   -0.985340   -1.794740
      9          1           0       -3.512420    1.765042    0.502750
     10          8           0        2.029942   -1.414145   -1.170025
     11          1           0        2.478162   -2.018910   -1.760943
     12          8           0        2.020838   -0.288754    1.799408
     13          1           0        2.486883   -0.329741    2.634395
     14          8           0        1.976744    1.716960   -0.667662
     15          1           0        2.198397    2.594599   -0.978331
 ---------------------------------------------------------------------
 Rotational constants (GHZ):           1.6232314           0.4703169           0.4671114
 Basis read from rwf:  (5D, 7F)
 Pseudo-potential data read from rwf file.
 There are   300 symmetry adapted cartesian basis functions of A   symmetry.
 There are   266 symmetry adapted basis functions of A   symmetry.
   266 basis functions,   576 primitive gaussians,   300 cartesian basis functions
    44 alpha electrons       44 beta electrons
       nuclear repulsion energy       630.5545694038 Hartrees.
 NAtoms=   15 NActive=   15 NUniq=   15 SFac= 1.00D+00 NAtFMM=   60 NAOKFM=F Big=F
 Integral buffers will be    131072 words long.
 Raffenetti 2 integral format.
 Two-electron integral symmetry is turned on.
 Nuclear repulsion after empirical dispersion term =      630.5443764945 Hartrees.
 One-electron integrals computed using PRISM.
 PrsmSu:  requested number of processors reduced to:   4 ShMem   1 Linda.
   1 Symmetry operations used in ECPInt.
 ECPInt:  NShTT=    3321 NPrTT=   20810 LenC2=    3164 LenP2D=   14951.
 LDataN:  DoStor=T MaxTD1= 8 Len=  415
 NBasis=   266 RedAO= T EigKep=  1.01D-04  NBF=   266
 NBsUse=   266 1.00D-06 EigRej= -1.00D+00 NBFU=   266
 Defaulting to unpruned grid for atomic number  40.
 Initial guess from the checkpoint file:  "/localscratch/sarashs.35132323.0/Gau-13091.chk"
 B after Tr=    -0.000000    0.000000   -0.000000
         Rot=    0.999953   -0.009681    0.000042    0.000097 Ang=  -1.11 deg.
 ExpMin= 1.01D-02 ExpMax= 1.61D+04 ExpMxC= 2.43D+03 IAcc=3 IRadAn=         5 AccDes= 0.00D+00
 Harris functional with IExCor=  402 and IRadAn=       5 diagonalized for initial guess.
 HarFok:  IExCor=  402 AccDes= 0.00D+00 IRadAn=         5 IDoV= 1 UseB2=F ITyADJ=14
 ICtDFT=  3500011 ScaDFX=  1.000000  1.000000  1.000000  1.000000
 Defaulting to unpruned grid for atomic number  40.
 FoFCou: FMM=F IPFlag=           0 FMFlag=      100000 FMFlg1=           0
         NFxFlg=           0 DoJE=T BraDBF=F KetDBF=T FulRan=T
         wScrn=  0.000000 ICntrl=       500 IOpCl=  0 I1Cent=   200000004 NGrid=           0
         NMat0=    1 NMatS0=      1 NMatT0=    0 NMatD0=    1 NMtDS0=    0 NMtDT0=    0
 Petite list used in FoFCou.
 Requested convergence on RMS density matrix=1.00D-08 within 128 cycles.
 Requested convergence on MAX density matrix=1.00D-06.
 Requested convergence on             energy=1.00D-06.
 No special actions if energy rises.
 Defaulting to unpruned grid for atomic number  40.
 Defaulting to unpruned grid for atomic number  40.
 Defaulting to unpruned grid for atomic number  40.
 Defaulting to unpruned grid for atomic number  40.
 Defaulting to unpruned grid for atomic number  40.
 Defaulting to unpruned grid for atomic number  40.
 Defaulting to unpruned grid for atomic number  40.
 Defaulting to unpruned grid for atomic number  40.
 Defaulting to unpruned grid for atomic number  40.
 Defaulting to unpruned grid for atomic number  40.
 Defaulting to unpruned grid for atomic number  40.
 Defaulting to unpruned grid for atomic number  40.
 Defaulting to unpruned grid for atomic number  40.
 Defaulting to unpruned grid for atomic number  40.
 Defaulting to unpruned grid for atomic number  40.
 Defaulting to unpruned grid for atomic number  40.
 SCF Done:  E(RB3LYP) =  -867.127717296     A.U. after    9 cycles
            NFock=  9  Conv=0.43D-08     -V/T= 2.0439
 PrsmSu:  requested number of processors reduced to:   2 ShMem   1 Linda.
 PrsmSu:  requested number of processors reduced to:  10 ShMem   1 Linda.
   1 Symmetry operations used in ECPInt.
 ECPInt:  NShTT=    3321 NPrTT=   20810 LenC2=    3164 LenP2D=   14951.
 LDataN:  DoStor=T MaxTD1= 9 Len=  602
 Calling FoFJK, ICntrl=      2127 FMM=F ISym2X=0 I1Cent= 0 IOpClX= 0 NMat=1 NMatS=1 NMatT=0.
 CoulSu:  requested number of processors reduced to:  10 ShMem   1 Linda.
 Defaulting to unpruned grid for atomic number  40.
 Defaulting to unpruned grid for atomic number  40.
 Defaulting to unpruned grid for atomic number  40.
 Defaulting to unpruned grid for atomic number  40.
 Defaulting to unpruned grid for atomic number  40.
 Defaulting to unpruned grid for atomic number  40.
 Defaulting to unpruned grid for atomic number  40.
 Defaulting to unpruned grid for atomic number  40.
 Defaulting to unpruned grid for atomic number  40.
 Defaulting to unpruned grid for atomic number  40.
 Defaulting to unpruned grid for atomic number  40.
 Defaulting to unpruned grid for atomic number  40.
 Defaulting to unpruned grid for atomic number  40.
 Defaulting to unpruned grid for atomic number  40.
 Defaulting to unpruned grid for atomic number  40.
 Defaulting to unpruned grid for atomic number  40.
 ***** Axes restored to original set *****
 -------------------------------------------------------------------
 Center     Atomic                   Forces (Hartrees/Bohr)
 Number     Number              X              Y              Z
 -------------------------------------------------------------------
      1       40           0.000567614    0.000564874   -0.000212079
      2       14          -0.000180340    0.000165239   -0.000040692
      3        8          -0.000335578   -0.000791618    0.000163957
      4        8          -0.000004581    0.000093194    0.000020731
      5        8           0.000170610    0.000016499   -0.000161586
      6        8           0.000008512   -0.000005351    0.000001383
      7        1          -0.000086751    0.000086300    0.000094340
      8        1          -0.000008617    0.000002372    0.000012729
      9        1          -0.000016337    0.000036158    0.000015609
     10        8          -0.000010463    0.000049879    0.000005486
     11        1          -0.000016247    0.000001894    0.000011613
     12        8          -0.000063805   -0.000064741    0.000015585
     13        1           0.000016896    0.000022126   -0.000018594
     14        8          -0.000027833   -0.000175501    0.000110729
     15        1          -0.000013079   -0.000001324   -0.000019210
 -------------------------------------------------------------------
 Cartesian Forces:  Max     0.000791618 RMS     0.000192156

 GradGradGradGradGradGradGradGradGradGradGradGradGradGradGradGradGradGrad
 Berny optimization.
 Using GEDIIS/GDIIS optimizer.
 FormGI is forming the generalized inverse of G from B-inverse, IUseBI=4.
 Internal  Forces:  Max     0.000752334 RMS     0.000156367
 Search for a local minimum.
 Step number   3 out of a maximum of   66
 All quantities printed in internal units (Hartrees-Bohrs-Radians)
 Mixed Optimization -- En-DIIS/RFO-DIIS
 Swapping is turned off.
 Update second derivatives using D2CorX and points    1    2    3
 DE= -8.15D-06 DEPred=-4.89D-06 R= 1.67D+00
 TightC=F SS=  1.41D+00  RLast= 6.53D-02 DXNew= 5.0454D-01 1.9592D-01
 Trust test= 1.67D+00 RLast= 6.53D-02 DXMaxT set to 3.00D-01
 ITU=  1  1  0
     Eigenvalues ---    0.00051   0.01430   0.01596   0.01597   0.01598
     Eigenvalues ---    0.01598   0.01619   0.02781   0.03387   0.03617
     Eigenvalues ---    0.03637   0.07405   0.08103   0.09067   0.09771
     Eigenvalues ---    0.12564   0.15980   0.16000   0.16109   0.19169
     Eigenvalues ---    0.20530   0.21471   0.21622   0.23222   0.24666
     Eigenvalues ---    0.24899   0.25001   0.32625   0.41382   0.41969
     Eigenvalues ---    0.45954   0.52299   0.54665   0.54723   0.54793
     Eigenvalues ---    0.56120   0.56127   0.562771000.000001000.00000
     Eigenvalues --- 1000.000001000.000001000.000001000.000001000.00000
     Eigenvalues --- 1000.000001000.000001000.000001000.000001000.00000
     Eigenvalues --- 1000.000001000.000001000.000001000.000001000.00000
     Eigenvalues --- 1000.00000
 En-DIIS/RFO-DIIS/Sim-DIIS IScMMF=       -3 using points:     3    2    1
 RFO step:  Lambda=-1.87087853D-05.
 DidBck=F Rises=F RFO-DIIS coefs:    2.70112   -0.99649   -0.70463
 Iteration  1 RMS(Cart)=  0.04151079 RMS(Int)=  0.00035804
 Iteration  2 RMS(Cart)=  0.00060190 RMS(Int)=  0.00008234
 Iteration  3 RMS(Cart)=  0.00000011 RMS(Int)=  0.00008234
 Iteration  1 RMS(Cart)=  0.00012618 RMS(Int)=  0.00006354
 Iteration  2 RMS(Cart)=  0.00010151 RMS(Int)=  0.00006835
 Iteration  3 RMS(Cart)=  0.00008167 RMS(Int)=  0.00007813
 Iteration  4 RMS(Cart)=  0.00006570 RMS(Int)=  0.00008862
 Iteration  5 RMS(Cart)=  0.00005286 RMS(Int)=  0.00009822
 Iteration  6 RMS(Cart)=  0.00004253 RMS(Int)=  0.00010649
 Iteration  7 RMS(Cart)=  0.00003422 RMS(Int)=  0.00011342
 Iteration  8 RMS(Cart)=  0.00002753 RMS(Int)=  0.00011914
 Iteration  9 RMS(Cart)=  0.00002215 RMS(Int)=  0.00012383
 Iteration 10 RMS(Cart)=  0.00001783 RMS(Int)=  0.00012765
 Iteration 11 RMS(Cart)=  0.00001434 RMS(Int)=  0.00013075
 Iteration 12 RMS(Cart)=  0.00001154 RMS(Int)=  0.00013326
 Iteration 13 RMS(Cart)=  0.00000929 RMS(Int)=  0.00013529
 Iteration 14 RMS(Cart)=  0.00000747 RMS(Int)=  0.00013693
 Iteration 15 RMS(Cart)=  0.00000601 RMS(Int)=  0.00013825
 Iteration 16 RMS(Cart)=  0.00000484 RMS(Int)=  0.00013932
 Iteration 17 RMS(Cart)=  0.00000389 RMS(Int)=  0.00014018
 Iteration 18 RMS(Cart)=  0.00000313 RMS(Int)=  0.00014087
 Iteration 19 RMS(Cart)=  0.00000252 RMS(Int)=  0.00014143
 Iteration 20 RMS(Cart)=  0.00000203 RMS(Int)=  0.00014188
 Iteration 21 RMS(Cart)=  0.00000163 RMS(Int)=  0.00014225
 Iteration 22 RMS(Cart)=  0.00000131 RMS(Int)=  0.00014254
 Iteration 23 RMS(Cart)=  0.00000106 RMS(Int)=  0.00014277
 Iteration 24 RMS(Cart)=  0.00000085 RMS(Int)=  0.00014296
 Variable       Old X    -DE/DX   Delta X   Delta X   Delta X     New X
                                 (Linear)    (Quad)   (Total)
    R1        3.71736   0.00050  -0.00836   0.00544  -0.00294   3.71442
    R2        3.65958  -0.00006   0.00060  -0.00044   0.00016   3.65974
    R3        3.66186  -0.00001   0.00164  -0.00052   0.00112   3.66297
    R4        3.64974  -0.00020   0.00337  -0.00202   0.00135   3.65109
    R5        3.07625   0.00010   0.00012   0.00026   0.00040   3.07664
    R6        3.12133   0.00013  -0.00314   0.00128  -0.00187   3.11946
    R7        3.14215  -0.00014   0.00196  -0.00097   0.00098   3.14313
    R8        3.12647  -0.00001  -0.00042   0.00009  -0.00034   3.12613
    R9        1.82094   0.00002   0.00001   0.00004   0.00005   1.82099
   R10        1.82073   0.00001  -0.00004   0.00002  -0.00002   1.82071
   R11        1.82129  -0.00001  -0.00004  -0.00000  -0.00004   1.82125
   R12        1.80844  -0.00002   0.00009  -0.00006   0.00003   1.80847
   R13        1.80870  -0.00001   0.00011  -0.00005   0.00006   1.80875
   R14        1.80851   0.00000  -0.00009   0.00003  -0.00006   1.80846
    A1        1.88952  -0.00002   0.00128  -0.00037   0.00097   1.89048
    A2        1.88125  -0.00013  -0.00338   0.00051  -0.00281   1.87844
    A3        1.91866   0.00005   0.00286  -0.00079   0.00195   1.92061
    A4        1.92155  -0.00006  -0.00270   0.00090  -0.00155   1.92000
    A5        1.92272   0.00007   0.00102  -0.00014   0.00074   1.92346
    A6        1.92928   0.00007   0.00086  -0.00010   0.00064   1.92992
    A7        0.04781   0.00043   0.00000   0.00000  -0.00000   0.04781
    A8        1.85784   0.00000   0.00136  -0.00057   0.00077   1.85861
    A9        1.91715  -0.00003   0.00036  -0.00014   0.00025   1.91740
   A10        2.00267  -0.00001  -0.00222   0.00056  -0.00167   2.00101
   A11        1.98473  -0.00001  -0.00102   0.00046  -0.00052   1.98421
   A12        1.87108   0.00011   0.00280  -0.00081   0.00186   1.87294
   A13        1.83366  -0.00006  -0.00136   0.00053  -0.00074   1.83291
   A14        2.02289   0.00007  -0.00144   0.00089  -0.00055   2.02234
   A15        2.02855  -0.00000   0.00208  -0.00063   0.00145   2.03000
   A16        2.01636  -0.00001   0.00036  -0.00019   0.00017   2.01653
   A17        3.21423   0.00075   0.00774  -0.00179   0.00479   3.21902
   A18        3.27793  -0.00001  -0.00103  -0.00069  -0.00173   3.27620
   A19        3.34025   0.00006   0.01015   0.00097   0.01112   3.35137
   A20        3.06317  -0.00002  -0.00105  -0.00099  -0.00204   3.06113
   A21        3.07936  -0.00038   0.01288  -0.00326   0.01008   3.08944
   A22        3.03162   0.00001  -0.00260   0.00154  -0.00106   3.03056
   A23        3.18498   0.00001   0.00534  -0.00052   0.00482   3.18979
   A24        3.13315   0.00004   0.01876  -0.00294   0.01581   3.14896
[...]
 ! A20   L(1,14,15,9,-1)       173.9499         -DE/DX =    0.0                 !
 ! A21   L(1,3,2,7,-2)         176.0285         -DE/DX =   -0.0003              !
 ! A22   L(1,10,11,8,-2)       172.7364         -DE/DX =    0.0                 !
 ! A23   L(1,12,13,7,-2)       180.4683         -DE/DX =    0.0                 !
 ! A24   L(1,14,15,9,-2)       179.6482         -DE/DX =    0.0                 !
 ! D1    D(10,1,2,4)          -143.9368         -DE/DX =    0.0001              !
 ! D2    D(10,1,2,5)            92.5631         -DE/DX =    0.0                 !
 ! D3    D(10,1,2,6)           -27.1632         -DE/DX =    0.0                 !
 ! D4    D(12,1,2,4)            95.4487         -DE/DX =    0.0                 !
 ! D5    D(12,1,2,5)           -28.0515         -DE/DX =    0.0                 !
 ! D6    D(12,1,2,6)          -147.7778         -DE/DX =   -0.0001              !
 ! D7    D(14,1,2,4)           -24.1514         -DE/DX =    0.0                 !
 ! D8    D(14,1,2,5)          -147.6516         -DE/DX =    0.0                 !
 ! D9    D(14,1,2,6)            92.6221         -DE/DX =   -0.0001              !
 ! D10   D(3,2,4,9)            166.0992         -DE/DX =    0.0                 !
 ! D11   D(5,2,4,9)            -72.8804         -DE/DX =    0.0                 !
 ! D12   D(6,2,4,9)             42.8188         -DE/DX =    0.0                 !
 ! D13   D(3,2,5,7)             36.8612         -DE/DX =    0.0                 !
 ! D14   D(4,2,5,7)            -82.2525         -DE/DX =    0.0                 !
 ! D15   D(6,2,5,7)            160.778          -DE/DX =    0.0                 !
 ! D16   D(3,2,6,8)             88.4123         -DE/DX =    0.0                 !
 ! D17   D(4,2,6,8)           -153.6178         -DE/DX =    0.0                 !
 ! D18   D(5,2,6,8)            -32.2746         -DE/DX =    0.0                 !
 --------------------------------------------------------------------------------
 GradGradGradGradGradGradGradGradGradGradGradGradGradGradGradGradGradGrad

                          Input orientation:                          
 ---------------------------------------------------------------------
 Center     Atomic      Atomic             Coordinates (Angstroms)
 Number     Number       Type             X           Y           Z
 ---------------------------------------------------------------------
      1         40           0        1.377238   -0.017912   -0.005934
      2         14           0       -2.197857   -0.370800    0.012575
      3          8           0       -0.572208   -0.284274    0.029474
      4          8           0       -2.749788    1.141279    0.384373
      5          8           0       -2.709878   -1.548851    1.067948
      6          8           0       -2.854739   -0.786888   -1.447528
      7          1           0       -2.205838   -1.636125    1.884554
      8          1           0       -2.955400   -1.732530   -1.603933
      9          1           0       -3.684067    1.302423    0.211886
     10          8           0        2.131494   -1.136051   -1.394189
     11          1           0        2.584872   -1.567486   -2.118165
     12          8           0        2.062217   -0.545176    1.730783
     13          1           0        2.606009   -0.713325    2.500479
     14          8           0        1.783183    1.837513   -0.353897
     15          1           0        1.885523    2.775373   -0.514996
 ---------------------------------------------------------------------
                    Distance matrix (angstroms):
                    1          2          3          4          5
     1  Zr   0.000000
     2  Si   3.592517   0.000000
     3  O    1.967878   1.628038   0.000000
     4  O    4.304463   1.652042   2.626787   0.000000
     5  O    4.494610   1.662463   2.692066   2.775909   0.000000
     6  O    4.536424   1.654244   2.764797   2.661711   2.632336
     7  H    4.362453   2.259517   2.817369   3.203185   0.963597
     8  H    4.925978   2.245279   3.231882   3.500631   2.689418
     9  H    5.235220   2.246824   3.497792   0.963637   3.132356
    10  O    1.935559   4.616046   3.172120   5.672427   5.447147
    11  H    2.884628   5.370904   4.028168   6.485268   6.179486
    12  O    1.939946   4.596833   3.146859   5.273741   4.921342
    13  H    2.876732   5.420712   4.048582   6.049960   5.568564
    14  O    1.930925   4.567234   3.193246   4.645171   5.803164
    15  H    2.884430   5.181769   3.962112   4.996522   6.505562
                    6          7          8          9         10
     6  O    0.000000
     7  H    3.499292   0.000000
     8  H    0.963761   3.569409   0.000000
     9  H    2.794040   3.690263   3.610969   0.000000
    10  O    4.998728   5.460099   5.126038   6.507409   0.000000
    11  H    5.536105   6.243187   5.566533   7.277714   0.956990
    12  O    5.859739   4.407960   6.140571   6.224182   3.181097
    13  H    6.738838   4.938096   6.986719   6.990418   3.946175
    14  O    5.440021   5.743615   6.063164   5.522432   3.169481
    15  H    6.002449   6.477530   6.703842   5.806743   4.016555
                   11         12         13         14         15
    11  H    0.000000
    12  O    4.016551   0.000000
    13  H    4.697011   0.957296   0.000000
    14  O    3.917826   3.178201   3.915518   0.000000
    15  H    4.681844   4.012579   4.667248   0.957083   0.000000
 Stoichiometry    H6O7SiZr
 Framework group  C1[X(H6O7SiZr)]
 Deg. of freedom    39
 Full point group                 C1      NOp   1
 Largest Abelian subgroup         C1      NOp   1
 Largest concise Abelian subgroup C1      NOp   1
                         Standard orientation:                         
 ---------------------------------------------------------------------
 Center     Atomic      Atomic             Coordinates (Angstroms)
 Number     Number       Type             X           Y           Z
 ---------------------------------------------------------------------
      1         40           0        1.390340   -0.001773   -0.010731
      2         14           0       -2.202099    0.007124    0.011234
      3          8           0       -0.576084   -0.074010    0.011667
      4          8           0       -2.597040    1.464473    0.681606
      5          8           0       -2.831050   -1.297728    0.827057
      6          8           0       -2.898462   -0.047246   -1.488314
      7          1           0       -2.338225   -1.593114    1.600613
      8          1           0       -3.094958   -0.929077   -1.823870
      9          1           0       -3.510112    1.748697    0.562816
     10          8           0        2.026308   -0.895919   -1.605233
     11          1           0        2.433133   -1.220244   -2.408437
     12          8           0        2.018685   -0.924665    1.575726
     13          1           0        2.542802   -1.293727    2.286718
     14          8           0        1.983003    1.835909    0.001268
     15          1           0        2.180262    2.772169    0.023920
 ---------------------------------------------------------------------
 Rotational constants (GHZ):           1.6231844           0.4701632           0.4670673

 **********************************************************************

            Population analysis using the SCF Density.

 **********************************************************************

 Orbital symmetries:
       Occupied  (A) (A) (A) (A) (A) (A) (A) (A) (A) (A) (A) (A)
                 (A) (A) (A) (A) (A) (A) (A) (A) (A) (A) (A) (A)
                 (A) (A) (A) (A) (A) (A) (A) (A) (A) (A) (A) (A)
                 (A) (A) (A) (A) (A) (A) (A) (A)
       Virtual   (A) (A) (A) (A) (A) (A) (A) (A) (A) (A) (A) (A)
                 (A) (A) (A) (A) (A) (A) (A) (A) (A) (A) (A) (A)
                 (A) (A) (A) (A) (A) (A) (A) (A) (A) (A) (A) (A)
                 (A) (A) (A) (A) (A) (A) (A) (A) (A) (A) (A) (A)
                 (A) (A) (A) (A) (A) (A) (A) (A) (A) (A) (A) (A)
                 (A) (A) (A) (A) (A) (A) (A) (A) (A) (A) (A) (A)
                 (A) (A) (A) (A) (A) (A) (A) (A) (A) (A) (A) (A)
                 (A) (A) (A) (A) (A) (A) (A) (A) (A) (A) (A) (A)
                 (A) (A) (A) (A) (A) (A) (A) (A) (A) (A) (A) (A)
                 (A) (A) (A) (A) (A) (A) (A) (A) (A) (A) (A) (A)
                 (A) (A) (A) (A) (A) (A) (A) (A) (A) (A) (A) (A)
                 (A) (A) (A) (A) (A) (A) (A) (A) (A) (A) (A) (A)
                 (A) (A) (A) (A) (A) (A) (A) (A) (A) (A) (A) (A)
                 (A) (A) (A) (A) (A) (A) (A) (A) (A) (A) (A) (A)
                 (A) (A) (A) (A) (A) (A) (A) (A) (A) (A) (A) (A)
                 (A) (A) (A) (A) (A) (A) (A) (A) (A) (A) (A) (A)
                 (A) (A) (A) (A) (A) (A) (A) (A) (A) (A) (A) (A)
                 (A) (A) (A) (A) (A) (A) (A) (A) (A) (A) (A) (A)
                 (A) (A) (A) (A) (A) (A)
 The electronic state is 1-A.
 Alpha  occ. eigenvalues --  -66.19982 -19.15206 -19.15155 -19.14897 -19.14414
 Alpha  occ. eigenvalues --  -19.14355 -19.14349 -19.13267  -5.34075  -3.70042
 Alpha  occ. eigenvalues --   -3.70036  -3.69994  -2.11290  -1.27572  -1.27501
 Alpha  occ. eigenvalues --   -1.27206  -1.02793  -0.99597  -0.99427  -0.96697
 Alpha  occ. eigenvalues --   -0.95475  -0.95461  -0.94155  -0.57489  -0.52286
 Alpha  occ. eigenvalues --   -0.51584  -0.50388  -0.49748  -0.49656  -0.45730
 Alpha  occ. eigenvalues --   -0.39645  -0.37868  -0.37280  -0.36101  -0.35687
 Alpha  occ. eigenvalues --   -0.34604  -0.34299  -0.33910  -0.33008  -0.32847
 Alpha  occ. eigenvalues --   -0.32090  -0.31361  -0.31282  -0.30649
 Alpha virt. eigenvalues --   -0.02990  -0.01299  -0.00827  -0.00598   0.00194
 Alpha virt. eigenvalues --    0.00289   0.01198   0.01338   0.01654   0.02167
 Alpha virt. eigenvalues --    0.02360   0.02915   0.03254   0.03292   0.03311
 Alpha virt. eigenvalues --    0.04202   0.04474   0.04596   0.05122   0.05790
 Alpha virt. eigenvalues --    0.06889   0.09020   0.09550   0.09694   0.10005
 Alpha virt. eigenvalues --    0.10213   0.11091   0.12376   0.13567   0.13801
 Alpha virt. eigenvalues --    0.14873   0.15329   0.15928   0.16400   0.17628
 Alpha virt. eigenvalues --    0.18207   0.18549   0.18663   0.19267   0.19465
 Alpha virt. eigenvalues --    0.20617   0.20707   0.20945   0.21903   0.22198
 Alpha virt. eigenvalues --    0.23047   0.24208   0.24985   0.26203   0.26322
 Alpha virt. eigenvalues --    0.27133   0.27608   0.28078   0.28262   0.28802
 Alpha virt. eigenvalues --    0.29183   0.29360   0.29788   0.30224   0.30273
 Alpha virt. eigenvalues --    0.31168   0.32426   0.33345   0.33707   0.34859
 Alpha virt. eigenvalues --    0.35596   0.36160   0.37412   0.38180   0.40413
 Alpha virt. eigenvalues --    0.42199   0.43650   0.44744   0.46775   0.47460
 Alpha virt. eigenvalues --    0.47758   0.49318   0.50171   0.51605   0.51790
 Alpha virt. eigenvalues --    0.53674   0.57555   0.58072   0.60518   0.60763
 Alpha virt. eigenvalues --    0.61121   0.62432   0.62880   0.64421   0.64729
 Alpha virt. eigenvalues --    0.65519   0.67752   0.71397   0.72317   0.73124
 Alpha virt. eigenvalues --    0.75572   0.76069   0.76716   0.77935   0.82134
 Alpha virt. eigenvalues --    0.84999   0.86024   0.96284   0.97960   0.99365
 Alpha virt. eigenvalues --    1.01481   1.02786   1.04937   1.05548   1.06429
 Alpha virt. eigenvalues --    1.07518   1.18615   1.19705   1.20358   1.21316
 Alpha virt. eigenvalues --    1.21683   1.22584   1.23289   1.23836   1.24767
 Alpha virt. eigenvalues --    1.25919   1.26351   1.27276   1.27851   1.28505
 Alpha virt. eigenvalues --    1.28963   1.30037   1.30717   1.31956   1.32642
 Alpha virt. eigenvalues --    1.33385   1.37086   1.42583   1.43711   1.46065
 Alpha virt. eigenvalues --    1.49585   1.53225   1.56100   1.59752   1.60763
 Alpha virt. eigenvalues --    1.63113   1.63430   1.63716   1.64728   1.67955
 Alpha virt. eigenvalues --    1.68796   1.71384   1.72311   1.72598   1.72679
 Alpha virt. eigenvalues --    1.73598   1.74510   1.75582   1.76454   1.77635
 Alpha virt. eigenvalues --    1.78897   1.80520   1.82838   1.83520   1.84298
 Alpha virt. eigenvalues --    1.85935   1.87886   1.90274   1.90606   1.91885
 Alpha virt. eigenvalues --    1.92287   1.93437   1.94808   1.96734   1.96954
 Alpha virt. eigenvalues --    1.98998   1.99319   2.01685   2.02248   2.05913
 Alpha virt. eigenvalues --    2.06901   2.07688   2.09978   2.14514   2.18126
 Alpha virt. eigenvalues --    2.18752   2.20872   2.21904   2.27837   2.32469
 Alpha virt. eigenvalues --    2.35499   2.41967   2.42522   2.43644   2.44843
 Alpha virt. eigenvalues --    2.51717   2.57891   2.58747   2.62665   2.63468
 Alpha virt. eigenvalues --    2.64443   2.66457   2.68062   2.69061   2.73188
 Alpha virt. eigenvalues --    2.77722   2.80289   2.80516   2.83720   2.87341
 Alpha virt. eigenvalues --    2.90147   2.90849   2.91174   2.92500   2.93793
 Alpha virt. eigenvalues --    3.02362   3.19670   3.47605   3.48039   3.52435
 Alpha virt. eigenvalues --    3.53360   3.56183   3.96237   4.10979   4.14997
 Alpha virt. eigenvalues --    4.17732  31.14976
          Condensed to atoms (all electrons):
               1          2          3          4          5          6
     1  Zr  10.423349   0.111215  -0.017609  -0.009037  -0.058718  -0.039519
     2  Si   0.111215  12.909688  -0.639558  -0.081605  -0.103205  -0.011098
     3  O   -0.017609  -0.639558   8.908923   0.135455   0.247755   0.105480
     4  O   -0.009037  -0.081605   0.135455   8.568963  -0.029275   0.016796
     5  O   -0.058718  -0.103205   0.247755  -0.029275   8.506910   0.034422
     6  O   -0.039519  -0.011098   0.105480   0.016796   0.034422   8.524941
     7  H   -0.002394   0.028466  -0.003688  -0.006884   0.244005   0.006557
     8  H    0.001179   0.064199  -0.022240   0.006996  -0.007030   0.231760
     9  H   -0.002714   0.038133   0.008744   0.221648  -0.005719  -0.005946
    10  O    0.038445  -0.020055  -0.022635   0.000747   0.000617   0.001881
    11  H   -0.087332   0.000892  -0.001042  -0.000000   0.000001   0.000016
    12  O    0.054716  -0.019934  -0.021295   0.000274   0.002571   0.000564
    13  H   -0.084019   0.000862  -0.000945  -0.000004   0.000003   0.000001
    14  O    0.032748  -0.028552  -0.026464   0.002737   0.001047   0.000074
    15  H   -0.089935   0.000783  -0.001050   0.000058   0.000003   0.000000
               7          8          9         10         11         12
     1  Zr  -0.002394   0.001179  -0.002714   0.038445  -0.087332   0.054716
     2  Si   0.028466   0.064199   0.038133  -0.020055   0.000892  -0.019934
     3  O   -0.003688  -0.022240   0.008744  -0.022635  -0.001042  -0.021295
     4  O   -0.006884   0.006996   0.221648   0.000747  -0.000000   0.000274
     5  O    0.244005  -0.007030  -0.005719   0.000617   0.000001   0.002571
     6  O    0.006557   0.231760  -0.005946   0.001881   0.000016   0.000564
     7  H    0.370452   0.000059   0.000099   0.000016   0.000000  -0.000197
     8  H    0.000059   0.358566   0.000051   0.000023   0.000000  -0.000011
     9  H    0.000099   0.000051   0.371952   0.000001   0.000000  -0.000006
    10  O    0.000016   0.000023   0.000001   8.599123   0.327258  -0.034933
    11  H    0.000000   0.000000   0.000000   0.327258   0.381881  -0.000672
    12  O   -0.000197  -0.000011  -0.000006  -0.034933  -0.000672   8.578702
    13  H    0.000001   0.000000  -0.000000  -0.000961  -0.000008   0.323418
    14  O   -0.000018  -0.000007  -0.000057  -0.034165  -0.001282  -0.035762
    15  H    0.000000  -0.000000  -0.000000  -0.000663  -0.000008  -0.000756
              13         14         15
     1  Zr  -0.084019   0.032748  -0.089935
     2  Si   0.000862  -0.028552   0.000783
     3  O   -0.000945  -0.026464  -0.001050
     4  O   -0.000004   0.002737   0.000058
     5  O    0.000003   0.001047   0.000003
     6  O    0.000001   0.000074   0.000000
     7  H    0.000001  -0.000018   0.000000
     8  H    0.000000  -0.000007  -0.000000
     9  H   -0.000000  -0.000057  -0.000000
    10  O   -0.000961  -0.034165  -0.000663
    11  H   -0.000008  -0.001282  -0.000008
    12  O    0.323418  -0.035762  -0.000756
    13  H    0.381848  -0.001269  -0.000009
    14  O   -0.001269   8.606386   0.332182
    15  H   -0.000009   0.332182   0.378978
 Mulliken charges:
               1
     1  Zr   1.729624
     2  Si   1.749770
     3  O   -0.649831
     4  O   -0.826868
     5  O   -0.833385
     6  O   -0.865928
     7  H    0.363528
     8  H    0.366454
     9  H    0.373817
    10  O   -0.854699
    11  H    0.380296
    12  O   -0.846678
    13  H    0.381083
    14  O   -0.847600
    15  H    0.380417
 Sum of Mulliken charges =  -0.00000
 Mulliken charges with hydrogens summed into heavy atoms:
               1
     1  Zr   1.729624
     2  Si   1.749770
     3  O   -0.649831
     4  O   -0.453051
     5  O   -0.469858
     6  O   -0.499474
    10  O   -0.474403
    12  O   -0.465595
    14  O   -0.467182
 Electronic spatial extent (au):  <R**2>=           2271.6486
 Charge=             -0.0000 electrons
 Dipole moment (field-independent basis, Debye):
    X=              2.0022    Y=             -0.8179    Z=              0.2846  Tot=              2.1815
 Quadrupole moment (field-independent basis, Debye-Ang):
   XX=            -68.8282   YY=            -69.0298   ZZ=            -67.8930
   XY=             -0.2261   XZ=             -0.2143   YZ=              0.5853
 Traceless Quadrupole moment (field-independent basis, Debye-Ang):
   XX=             -0.2446   YY=             -0.4461   ZZ=              0.6907
   XY=             -0.2261   XZ=             -0.2143   YZ=              0.5853
 Octapole moment (field-independent basis, Debye-Ang**2):
  XXX=             44.7892  YYY=             18.1125  ZZZ=              0.8332  XYY=             23.6938
  XXY=              9.7499  XXZ=              0.6066  XZZ=             30.9368  YZZ=            -25.7893
  YYZ=             -1.1595  XYZ=             -7.5685
 Hexadecapole moment (field-independent basis, Debye-Ang**3):
 XXXX=          -1893.4858 YYYY=           -363.6811 ZZZZ=           -345.8185 XXXY=           -104.1043
 XXXZ=             13.3423 YYYX=             36.5194 YYYZ=             -4.9032 ZZZX=            -13.1945
 ZZZY=              2.8117 XXYY=           -341.3045 XXZZ=           -337.6211 YYZZ=           -114.6753
 XXYZ=             35.4841 YYXZ=              8.6526 ZZXY=             -5.3748
 N-N= 6.305618253397D+02 E-N=-3.298635567899D+03  KE= 8.306834214236D+02
 1\1\GINC-GRA1062\FOpt\RB3LYP\Gen\H6O7Si1Zr1\SARASHS\15-Jul-2020\0\\#n 
 B3LYP/Gen Pseudo=cards EmpiricalDispersion=GD3 Opt=modredundant\\Title
 \\0,1\Zr,1.377237791,-0.0179117341,-0.0059344918\Si,-2.1978572885,-0.3
 707996662,0.0125753639\O,-0.5722082807,-0.2842744213,0.0294735329\O,-2
 .7497879019,1.1412791348,0.384373093\O,-2.7098784776,-1.5488513945,1.0
 679483773\O,-2.8547390548,-0.7868878942,-1.4475279289\H,-2.2058383112,
 -1.6361246096,1.8845542327\H,-2.9553996762,-1.7325301755,-1.603932873\
 H,-3.6840666065,1.3024233659,0.2118864293\O,2.1314939127,-1.1360507442
 ,-1.3941889928\H,2.5848723107,-1.5674862925,-2.118164695\O,2.062216950
 6,-0.5451762415,1.7307828456\H,2.6060089691,-0.713325079,2.5004790463\
 O,1.7831830341,1.8375127608,-0.3538974851\H,1.8855226293,2.7753729911,
 -0.5149964544\\Version=ES64L-G16RevB.01\State=1-A\HF=-867.1277709\RMSD
 =3.489e-09\RMSF=8.510e-05\Dipole=0.8134768,-0.2118715,0.1730972\Quadru
 pole=-0.141456,-0.1723883,0.3138443,-0.197248,-0.1802933,0.5485226\PG=
 C01 [X(H6O7Si1Zr1)]\\@


 ABALONE: AN EXPRESSION OF DISBELIEF.
 Job cpu time:       0 days  4 hours  7 minutes 14.9 seconds.
 Elapsed time:       0 days  0 hours 17 minutes 52.9 seconds.
 File lengths (MBytes):  RWF=     48 Int=      0 D2E=      0 Chk=      6 Scr=      1
 Normal termination of Gaussian 16 at Wed Jul 15 14:48:00 2020.
