 Entering Gaussian System, Link 0=g16
 Initial command:
 /opt/software/gaussian/g16.b01/l1.exe "/localscratch/sarashs.35250441.0/Gau-3635.inp" -scrdir="/localscratch/sarashs.35250441.0/"
 Entering Link 1 = /opt/software/gaussian/g16.b01/l1.exe PID=      3636.
  
 Copyright (c) 1988-2017, Gaussian, Inc.  All Rights Reserved.
  
 This is part of the Gaussian(R) 16 program.  It is based on
 the Gaussian(R) 09 system (copyright 2009, Gaussian, Inc.),
 the Gaussian(R) 03 system (copyright 2003, Gaussian, Inc.),
 the Gaussian(R) 98 system (copyright 1998, Gaussian, Inc.),
 the Gaussian(R) 94 system (copyright 1995, Gaussian, Inc.),
 the Gaussian 92(TM) system (copyright 1992, Gaussian, Inc.),
 the Gaussian 90(TM) system (copyright 1990, Gaussian, Inc.),
 the Gaussian 88(TM) system (copyright 1988, Gaussian, Inc.),
 the Gaussian 86(TM) system (copyright 1986, Carnegie Mellon
 University), and the Gaussian 82(TM) system (copyright 1983,
 Carnegie Mellon University). Gaussian is a federally registered
 trademark of Gaussian, Inc.
  
 This software contains proprietary and confidential information,
 including trade secrets, belonging to Gaussian, Inc.
  
 This software is provided under written license and may be
 used, copied, transmitted, or stored only in accord with that
 written license.
  
 The following legend is applicable only to US Government
 contracts under FAR:
  
                    RESTRICTED RIGHTS LEGEND
  
 Use, reproduction and disclosure by the US Government is
 subject to restrictions as set forth in subparagraphs (a)
 and (c) of the Commercial Computer Software - Restricted
 Rights clause in FAR 52.227-19.
  
 Gaussian, Inc.
 340 Quinnipiac St., Bldg. 40, Wallingford CT 06492
  
  
 ---------------------------------------------------------------
 Warning -- This program may not be used in any manner that
 competes with the business of Gaussian, Inc. or will provide
 assistance to any competitor of Gaussian, Inc.  The licensee
 of this program is prohibited from giving any competitor of
 Gaussian, Inc. access to this program.  By using this program,
 the user acknowledges that Gaussian, Inc. is engaged in the
 business of creating and licensing software in the field of
 computational chemistry and represents and warrants to the
 licensee that it is not a competitor of Gaussian, Inc. and that
 it will not use this program in any manner prohibited above.
 ---------------------------------------------------------------
  

 Cite this work as:
 Gaussian 16, Revision B.01,
 M. J. Frisch, G. W. Trucks, H. B. Schlegel, G. E. Scuseria, 
 M. A. Robb, J. R. Cheeseman, G. Scalmani, V. Barone, 
 G. A. Petersson, H. Nakatsuji, X. Li, M. Caricato, A. V. Marenich, 
 J. Bloino, B. G. Janesko, R. Gomperts, B. Mennucci, H. P. Hratchian, 
 J. V. Ortiz, A. F. Izmaylov, J. L. Sonnenberg, D. Williams-Young, 
 F. Ding, F. Lipparini, F. Egidi, J. Goings, B. Peng, A. Petrone, 
 T. Henderson, D. Ranasinghe, V. G. Zakrzewski, J. Gao, N. Rega, 
 G. Zheng, W. Liang, M. Hada, M. Ehara, K. Toyota, R. Fukuda, 
 J. Hasegawa, M. Ishida, T. Nakajima, Y. Honda, O. Kitao, H. Nakai, 
 T. Vreven, K. Throssell, J. A. Montgomery, Jr., J. E. Peralta, 
 F. Ogliaro, M. J. Bearpark, J. J. Heyd, E. N. Brothers, K. N. Kudin, 
 V. N. Staroverov, T. A. Keith, R. Kobayashi, J. Normand, 
 K. Raghavachari, A. P. Rendell, J. C. Burant, S. S. Iyengar, 
 J. Tomasi, M. Cossi, J. M. Millam, M. Klene, C. Adamo, R. Cammi, 
 J. W. Ochterski, R. L. Martin, K. Morokuma, O. Farkas, 
 J. B. Foresman, and D. J. Fox, Gaussian, Inc., Wallingford CT, 2016.
 
 ******************************************
 Gaussian 16:  ES64L-G16RevB.01 20-Dec-2017
                16-Jul-2020 
 ******************************************
 %NProcShared=16
 Will use up to   16 processors via shared memory.
 ------------------------------------------------------------------
 #n B3LYP/Gen Pseudo=cards EmpiricalDispersion=GD3 Opt=modredundant
 ------------------------------------------------------------------
 1/18=120,19=15,26=3,38=1/1,3;
 2/9=110,12=2,17=6,18=5,40=1/2;
 3/5=7,11=2,16=1,17=8,25=1,30=1,71=1,74=-5,124=31/1,2,3;
 4//1;
 5/5=2,38=5/2;
 6/7=2,8=2,9=2,10=2,28=1/1;
 7//1,2,3,16;
 1/18=20,19=15,26=3/3(2);
 2/9=110/2;
 99//99;
 2/9=110/2;
 3/5=7,6=1,11=2,16=1,17=8,25=1,30=1,71=1,74=-5,82=7,124=31/1,2,3;
 4/5=5,16=3,69=1/1;
 5/5=2,38=5/2;
 7//1,2,3,16;
 1/18=20,19=15,26=3/3(-5);
 2/9=110/2;
 6/7=2,8=2,9=2,10=2,19=2,28=1/1;
 99/9=1/99;
 -----
 Title
 -----
 Symbolic Z-matrix:
 Charge =  0 Multiplicity = 1
 Zr                    1.37839  -0.01367  -0.01029 
 Si                   -2.02445   0.45622  -0.01134 
 O                    -0.57498  -0.28442   0.01654 
 O                    -1.80826   1.93066   0.70436 
 O                    -3.15821  -0.49533   0.74414 
 O                    -2.63359   0.73524  -1.52423 
 H                    -2.84861  -1.00386   1.50171 
 H                    -3.16531   0.0223   -1.89558 
 H                    -2.5184    2.56957   0.57771 
 O                     2.15239  -1.31312  -1.2196 
 H                     2.65751  -1.85105  -1.82887 
 O                     2.04402  -0.29207   1.78758 
 H                     2.51011  -0.3161    2.62313 
 O                     1.78195   1.7752   -0.6111 
 H                     1.91399   2.68442  -0.87911 
 
 The following ModRedundant input section has been read:
 A       1       2       3 F                                                   
 

 GradGradGradGradGradGradGradGradGradGradGradGradGradGradGradGradGradGrad
 Berny optimization.
 Initialization pass.
                           ----------------------------
                           !    Initial Parameters    !
                           ! (Angstroms and Degrees)  !
 --------------------------                            --------------------------
 ! Name  Definition              Value          Derivative Info.                !
 --------------------------------------------------------------------------------
 ! R1    R(1,3)                  1.9722         estimate D2E/DX2                !
 ! R2    R(1,10)                 1.9365         estimate D2E/DX2                !
 ! R3    R(1,12)                 1.9372         estimate D2E/DX2                !
 ! R4    R(1,14)                 1.9297         estimate D2E/DX2                !
 ! R5    R(2,3)                  1.628          estimate D2E/DX2                !
 ! R6    R(2,4)                  1.6532         estimate D2E/DX2                !
 ! R7    R(2,5)                  1.6618         estimate D2E/DX2                !
 ! R8    R(2,6)                  1.6546         estimate D2E/DX2                !
 ! R9    R(4,9)                  0.9636         estimate D2E/DX2                !
 ! R10   R(5,7)                  0.9635         estimate D2E/DX2                !
 ! R11   R(6,8)                  0.9638         estimate D2E/DX2                !
 ! R12   R(10,11)                0.9569         estimate D2E/DX2                !
 ! R13   R(12,13)                0.9571         estimate D2E/DX2                !
 ! R14   R(14,15)                0.9571         estimate D2E/DX2                !
 ! A1    A(3,1,10)             108.1944         estimate D2E/DX2                !
 ! A2    A(3,1,12)             107.9362         estimate D2E/DX2                !
 ! A3    A(3,1,14)             109.793          estimate D2E/DX2                !
 ! A4    A(10,1,12)            110.2299         estimate D2E/DX2                !
 ! A5    A(10,1,14)            110.1226         estimate D2E/DX2                !
 ! A6    A(12,1,14)            110.5061         estimate D2E/DX2                !
 ! A7    A(1,2,3)               19.2269         Frozen                          !
 ! A8    A(3,2,4)              106.3745         estimate D2E/DX2                !
 ! A9    A(3,2,5)              109.8252         estimate D2E/DX2                !
 ! A10   A(3,2,6)              114.8446         estimate D2E/DX2                !
 ! A11   A(4,2,5)              113.7722         estimate D2E/DX2                !
 ! A12   A(4,2,6)              107.073          estimate D2E/DX2                !
 ! A13   A(5,2,6)              105.1334         estimate D2E/DX2                !
 ! A14   A(1,3,2)              145.0            estimate D2E/DX2                !
 ! A15   A(2,4,9)              115.9816         estimate D2E/DX2                !
 ! A16   A(2,5,7)              116.1313         estimate D2E/DX2                !
 ! A17   A(2,6,8)              115.5094         estimate D2E/DX2                !
 ! A18   L(1,10,11,8,-1)       186.4089         estimate D2E/DX2                !
 ! A19   L(1,12,13,7,-1)       190.0029         estimate D2E/DX2                !
 ! A20   L(1,14,15,4,-1)       175.3834         estimate D2E/DX2                !
 ! A21   L(1,10,11,8,-2)       171.5124         estimate D2E/DX2                !
 ! A22   L(1,12,13,7,-2)       185.4996         estimate D2E/DX2                !
 ! A23   L(1,14,15,4,-2)       179.4564         estimate D2E/DX2                !
 ! D1    D(10,1,3,2)          -136.4116         estimate D2E/DX2                !
 ! D2    D(12,1,3,2)           104.3157         estimate D2E/DX2                !
 ! D3    D(14,1,3,2)           -16.2024         estimate D2E/DX2                !
 ! D4    D(4,2,3,1)            -29.9122         estimate D2E/DX2                !
 ! D5    D(5,2,3,1)           -153.454          estimate D2E/DX2                !
 ! D6    D(6,2,3,1)             88.3337         estimate D2E/DX2                !
 ! D7    D(3,2,4,9)            165.9164         estimate D2E/DX2                !
 ! D8    D(5,2,4,9)            -73.0403         estimate D2E/DX2                !
 ! D9    D(6,2,4,9)             42.6624         estimate D2E/DX2                !
 ! D10   D(3,2,5,7)             35.3292         estimate D2E/DX2                !
 ! D11   D(4,2,5,7)            -83.7657         estimate D2E/DX2                !
 ! D12   D(6,2,5,7)            159.3971         estimate D2E/DX2                !
 ! D13   D(3,2,6,8)             88.6232         estimate D2E/DX2                !
 ! D14   D(4,2,6,8)           -153.5248         estimate D2E/DX2                !
 ! D15   D(5,2,6,8)            -32.1997         estimate D2E/DX2                !
 --------------------------------------------------------------------------------
 Trust Radius=3.00D-01 FncErr=1.00D-07 GrdErr=1.00D-06 EigMax=2.50D+02 EigMin=1.00D-04
 Number of steps in this run=     62 maximum allowed number of steps=    100.
 GradGradGradGradGradGradGradGradGradGradGradGradGradGradGradGradGradGrad

                          Input orientation:                          
 ---------------------------------------------------------------------
 Center     Atomic      Atomic             Coordinates (Angstroms)
 Number     Number       Type             X           Y           Z
 ---------------------------------------------------------------------
      1         40           0        1.378390   -0.013670   -0.010290
      2         14           0       -2.024450    0.456220   -0.011340
      3          8           0       -0.574980   -0.284420    0.016540
      4          8           0       -1.808260    1.930660    0.704360
      5          8           0       -3.158210   -0.495330    0.744140
      6          8           0       -2.633590    0.735240   -1.524230
      7          1           0       -2.848610   -1.003860    1.501710
      8          1           0       -3.165310    0.022300   -1.895580
      9          1           0       -2.518400    2.569570    0.577710
     10          8           0        2.152390   -1.313120   -1.219600
     11          1           0        2.657510   -1.851050   -1.828870
     12          8           0        2.044020   -0.292070    1.787580
     13          1           0        2.510110   -0.316100    2.623130
     14          8           0        1.781950    1.775200   -0.611100
     15          1           0        1.913990    2.684420   -0.879110
 ---------------------------------------------------------------------
                    Distance matrix (angstroms):
                    1          2          3          4          5
     1  Zr   0.000000
     2  Si   3.435130   0.000000
     3  O    1.972227   1.627971   0.000000
     4  O    3.800774   1.653160   2.626910   0.000000
     5  O    4.624057   1.661809   2.692018   2.776576   0.000000
     6  O    4.353029   1.654612   2.766144   2.660228   2.633445
     7  H    4.597189   2.258405   2.809398   3.213954   0.963518
     8  H    4.919433   2.245041   3.234206   3.499016   2.690002
     9  H    4.712096   2.248825   3.498150   0.963610   3.135390
    10  O    1.936512   4.694300   3.166198   5.469047   5.720798
    11  H    2.884328   5.526994   4.038423   6.376652   6.502381
    12  O    1.937242   4.510931   3.161614   4.577549   5.309734
    13  H    2.882214   5.300863   4.038947   5.232392   5.974327
    14  O    1.929738   4.072849   3.192348   3.826775   5.603317
    15  H    2.884685   4.607517   3.976326   4.114690   6.202658
                    6          7          8          9         10
     6  O    0.000000
     7  H    3.496715   0.000000
     8  H    0.963800   3.562988   0.000000
     9  H    2.792165   3.705701   3.608911   0.000000
    10  O    5.214804   5.701857   5.524331   6.334184   0.000000
    11  H    5.897240   6.490597   6.117117   7.219664   0.956935
    12  O    5.822670   4.952393   6.387614   5.519823   3.177644
    13  H    6.690558   5.517833   7.262482   6.147906   3.986049
    14  O    4.627344   5.799071   5.403511   4.531810   3.169419
    15  H    4.989586   6.477196   5.824035   4.667076   4.019091
                   11         12         13         14         15
    11  H    0.000000
    12  O    3.985662   0.000000
    13  H    4.711486   0.957059   0.000000
    14  O    3.924189   3.177413   3.919693   0.000000
    15  H    4.693118   3.998454   4.650179   0.957050   0.000000
 Stoichiometry    H6O7SiZr
 Framework group  C1[X(H6O7SiZr)]
 Deg. of freedom    39
 Full point group                 C1      NOp   1
 Largest Abelian subgroup         C1      NOp   1
 Largest concise Abelian subgroup C1      NOp   1
                         Standard orientation:                         
 ---------------------------------------------------------------------
 Center     Atomic      Atomic             Coordinates (Angstroms)
 Number     Number       Type             X           Y           Z
 ---------------------------------------------------------------------
      1         40           0       -1.330002   -0.022570    0.023571
      2         14           0        2.104906   -0.060626    0.015177
      3          8           0        0.563091   -0.524516    0.255798
      4          8           0        2.099473    0.892275   -1.335708
      5          8           0        3.082547   -1.398348   -0.112603
      6          8           0        2.759938    0.837645    1.240649
      7          1           0        2.696469   -2.166043   -0.548442
      8          1           0        3.185409    0.333420    1.943246
      9          1           0        2.895819    1.412964   -1.488221
     10          8           0       -2.274962   -0.454643    1.657720
     11          1           0       -2.848040   -0.556467    2.417285
     12          8           0       -2.043067   -1.051731   -1.454696
     13          1           0       -2.514241   -1.418580   -2.202612
     14          8           0       -1.464848    1.867540   -0.341380
     15          1           0       -1.461379    2.800478   -0.554827
 ---------------------------------------------------------------------
 Rotational constants (GHZ):           1.6557976           0.5006062           0.4995634
 General basis read from cards:  (5D, 7F)
 ======================================================================================================
                                       Pseudopotential Parameters
 ======================================================================================================
  Center     Atomic      Valence      Angular      Power
  Number     Number     Electrons     Momentum     of R      Exponent        Coefficient   SO-Coeffient
 ======================================================================================================
    1         40           12
                                      G and up 
                                                     2        1.0000000        0.00000000    0.00000000
                                      S - G
                                                     2        8.6365280      150.24299400    0.00000000
                                                     2        3.7176390       18.78003600    0.00000000
                                      P - G
                                                     2        7.6267280       33.19279100    0.00000000
                                                     2        7.4532070       66.38903900    0.00000000
                                                     2        3.3583890        4.62072600    0.00000000
                                                     2        3.2297380        9.26027000    0.00000000
                                      D - G
                                                     2        5.9380860       13.99338300    0.00000000
                                                     2        5.8255440       20.99588200    0.00000000
                                                     2        2.2050190        2.28516600    0.00000000
                                                     2        2.2062920        3.44126000    0.00000000
                                      F - G
                                                     2        4.8002150       -5.23932000    0.00000000
                                                     2        4.7989920       -6.98742400    0.00000000
    2         14
                                   No pseudopotential on this center.
    3          8
                                   No pseudopotential on this center.
    4          8
                                   No pseudopotential on this center.
    5          8
                                   No pseudopotential on this center.
    6          8
                                   No pseudopotential on this center.
    7          1
                                   No pseudopotential on this center.
    8          1
                                   No pseudopotential on this center.
    9          1
                                   No pseudopotential on this center.
   10          8
                                   No pseudopotential on this center.
   11          1
                                   No pseudopotential on this center.
   12          8
                                   No pseudopotential on this center.
   13          1
                                   No pseudopotential on this center.
   14          8
                                   No pseudopotential on this center.
   15          1
                                   No pseudopotential on this center.
 ======================================================================================================
 There are   300 symmetry adapted cartesian basis functions of A   symmetry.
 There are   266 symmetry adapted basis functions of A   symmetry.
   266 basis functions,   576 primitive gaussians,   300 cartesian basis functions
    44 alpha electrons       44 beta electrons
       nuclear repulsion energy       638.7079412749 Hartrees.
 NAtoms=   15 NActive=   15 NUniq=   15 SFac= 1.00D+00 NAtFMM=   60 NAOKFM=F Big=F
 Integral buffers will be    131072 words long.
 Raffenetti 2 integral format.
 Two-electron integral symmetry is turned on.
 Nuclear repulsion after empirical dispersion term =      638.6974947919 Hartrees.
 One-electron integrals computed using PRISM.
 PrsmSu:  requested number of processors reduced to:   4 ShMem   1 Linda.
   1 Symmetry operations used in ECPInt.
 ECPInt:  NShTT=    3321 NPrTT=   20810 LenC2=    3186 LenP2D=   15126.
 LDataN:  DoStor=T MaxTD1= 8 Len=  415
 NBasis=   266 RedAO= T EigKep=  1.09D-04  NBF=   266
 NBsUse=   266 1.00D-06 EigRej= -1.00D+00 NBFU=   266
 Defaulting to unpruned grid for atomic number  40.
 ExpMin= 1.01D-02 ExpMax= 1.61D+04 ExpMxC= 2.43D+03 IAcc=3 IRadAn=         5 AccDes= 0.00D+00
 Harris functional with IExCor=  402 and IRadAn=       5 diagonalized for initial guess.
 HarFok:  IExCor=  402 AccDes= 0.00D+00 IRadAn=         5 IDoV= 1 UseB2=F ITyADJ=14
 ICtDFT=  3500011 ScaDFX=  1.000000  1.000000  1.000000  1.000000
 Defaulting to unpruned grid for atomic number  40.
 FoFCou: FMM=F IPFlag=           0 FMFlag=      100000 FMFlg1=           0
         NFxFlg=           0 DoJE=T BraDBF=F KetDBF=T FulRan=T
         wScrn=  0.000000 ICntrl=       500 IOpCl=  0 I1Cent=   200000004 NGrid=           0
         NMat0=    1 NMatS0=      1 NMatT0=    0 NMatD0=    1 NMtDS0=    0 NMtDT0=    0
 Petite list used in FoFCou.
 Requested convergence on RMS density matrix=1.00D-08 within 128 cycles.
 Requested convergence on MAX density matrix=1.00D-06.
 Requested convergence on             energy=1.00D-06.
 No special actions if energy rises.
 Defaulting to unpruned grid for atomic number  40.
 Defaulting to unpruned grid for atomic number  40.
 Defaulting to unpruned grid for atomic number  40.
 Defaulting to unpruned grid for atomic number  40.
 Defaulting to unpruned grid for atomic number  40.
 Defaulting to unpruned grid for atomic number  40.
 Defaulting to unpruned grid for atomic number  40.
 Defaulting to unpruned grid for atomic number  40.
 Defaulting to unpruned grid for atomic number  40.
 Defaulting to unpruned grid for atomic number  40.
 Defaulting to unpruned grid for atomic number  40.
 Defaulting to unpruned grid for atomic number  40.
 Defaulting to unpruned grid for atomic number  40.
 Defaulting to unpruned grid for atomic number  40.
 Defaulting to unpruned grid for atomic number  40.
 Defaulting to unpruned grid for atomic number  40.
 SCF Done:  E(RB3LYP) =  -867.127206063     A.U. after   13 cycles
            NFock= 13  Conv=0.58D-08     -V/T= 2.0438

 **********************************************************************

            Population analysis using the SCF Density.

 **********************************************************************

 Orbital symmetries:
       Occupied  (A) (A) (A) (A) (A) (A) (A) (A) (A) (A) (A) (A)
                 (A) (A) (A) (A) (A) (A) (A) (A) (A) (A) (A) (A)
                 (A) (A) (A) (A) (A) (A) (A) (A) (A) (A) (A) (A)
                 (A) (A) (A) (A) (A) (A) (A) (A)
       Virtual   (A) (A) (A) (A) (A) (A) (A) (A) (A) (A) (A) (A)
                 (A) (A) (A) (A) (A) (A) (A) (A) (A) (A) (A) (A)
                 (A) (A) (A) (A) (A) (A) (A) (A) (A) (A) (A) (A)
                 (A) (A) (A) (A) (A) (A) (A) (A) (A) (A) (A) (A)
                 (A) (A) (A) (A) (A) (A) (A) (A) (A) (A) (A) (A)
                 (A) (A) (A) (A) (A) (A) (A) (A) (A) (A) (A) (A)
                 (A) (A) (A) (A) (A) (A) (A) (A) (A) (A) (A) (A)
                 (A) (A) (A) (A) (A) (A) (A) (A) (A) (A) (A) (A)
                 (A) (A) (A) (A) (A) (A) (A) (A) (A) (A) (A) (A)
                 (A) (A) (A) (A) (A) (A) (A) (A) (A) (A) (A) (A)
                 (A) (A) (A) (A) (A) (A) (A) (A) (A) (A) (A) (A)
                 (A) (A) (A) (A) (A) (A) (A) (A) (A) (A) (A) (A)
                 (A) (A) (A) (A) (A) (A) (A) (A) (A) (A) (A) (A)
                 (A) (A) (A) (A) (A) (A) (A) (A) (A) (A) (A) (A)
                 (A) (A) (A) (A) (A) (A) (A) (A) (A) (A) (A) (A)
                 (A) (A) (A) (A) (A) (A) (A) (A) (A) (A) (A) (A)
                 (A) (A) (A) (A) (A) (A) (A) (A) (A) (A) (A) (A)
                 (A) (A) (A) (A) (A) (A) (A) (A) (A) (A) (A) (A)
                 (A) (A) (A) (A) (A) (A)
 The electronic state is 1-A.
 Alpha  occ. eigenvalues --  -66.19988 -19.15256 -19.15239 -19.15197 -19.14237
 Alpha  occ. eigenvalues --  -19.14098 -19.14061 -19.13298  -5.34111  -3.70074
 Alpha  occ. eigenvalues --   -3.70067  -3.70031  -2.11032  -1.27358  -1.27238
 Alpha  occ. eigenvalues --   -1.26969  -1.02929  -0.99783  -0.99528  -0.96482
 Alpha  occ. eigenvalues --   -0.95252  -0.95198  -0.94226  -0.57550  -0.52422
 Alpha  occ. eigenvalues --   -0.51744  -0.50190  -0.49522  -0.49448  -0.45434
 Alpha  occ. eigenvalues --   -0.39738  -0.37700  -0.37473  -0.36039  -0.35613
 Alpha  occ. eigenvalues --   -0.34730  -0.34300  -0.34040  -0.32796  -0.32677
 Alpha  occ. eigenvalues --   -0.31926  -0.31263  -0.31099  -0.30822
 Alpha virt. eigenvalues --   -0.02867  -0.01265  -0.00610  -0.00503   0.00426
 Alpha virt. eigenvalues --    0.00505   0.01087   0.01197   0.01879   0.02331
 Alpha virt. eigenvalues --    0.02559   0.03079   0.03267   0.03378   0.03484
 Alpha virt. eigenvalues --    0.04247   0.04552   0.04745   0.05462   0.05711
 Alpha virt. eigenvalues --    0.06772   0.09143   0.09682   0.09877   0.10016
 Alpha virt. eigenvalues --    0.10316   0.11627   0.12337   0.12968   0.13981
 Alpha virt. eigenvalues --    0.14655   0.15564   0.16219   0.16830   0.17725
 Alpha virt. eigenvalues --    0.17913   0.18274   0.19292   0.19484   0.19715
 Alpha virt. eigenvalues --    0.20504   0.20833   0.21476   0.22126   0.22713
 Alpha virt. eigenvalues --    0.23921   0.24907   0.25513   0.26497   0.26668
 Alpha virt. eigenvalues --    0.27350   0.27553   0.28042   0.28131   0.28748
 Alpha virt. eigenvalues --    0.29214   0.29715   0.30007   0.30212   0.30856
 Alpha virt. eigenvalues --    0.31414   0.32915   0.34080   0.34791   0.35307
 Alpha virt. eigenvalues --    0.35810   0.36222   0.37318   0.38713   0.39637
 Alpha virt. eigenvalues --    0.42184   0.44081   0.44774   0.47222   0.48161
 Alpha virt. eigenvalues --    0.48850   0.49740   0.49978   0.51877   0.53766
 Alpha virt. eigenvalues --    0.54438   0.57062   0.58072   0.59766   0.60605
 Alpha virt. eigenvalues --    0.61184   0.62610   0.62994   0.65613   0.66355
 Alpha virt. eigenvalues --    0.67565   0.67915   0.71349   0.72126   0.73965
 Alpha virt. eigenvalues --    0.74615   0.75695   0.77909   0.78245   0.80598
 Alpha virt. eigenvalues --    0.84854   0.85615   0.96355   0.97997   0.98358
 Alpha virt. eigenvalues --    1.01954   1.02812   1.04187   1.06425   1.07298
 Alpha virt. eigenvalues --    1.07839   1.18935   1.19693   1.20523   1.21109
 Alpha virt. eigenvalues --    1.21505   1.23131   1.23644   1.23830   1.24935
 Alpha virt. eigenvalues --    1.26270   1.27405   1.28443   1.28601   1.29077
 Alpha virt. eigenvalues --    1.30511   1.31281   1.31843   1.32368   1.32775
 Alpha virt. eigenvalues --    1.34694   1.37185   1.42639   1.43629   1.46365
 Alpha virt. eigenvalues --    1.48920   1.51607   1.54546   1.59972   1.60528
 Alpha virt. eigenvalues --    1.61289   1.63097   1.63725   1.65203   1.66939
 Alpha virt. eigenvalues --    1.69965   1.71328   1.71765   1.72707   1.73360
 Alpha virt. eigenvalues --    1.74325   1.74749   1.76056   1.77131   1.78572
 Alpha virt. eigenvalues --    1.80491   1.81138   1.82085   1.83689   1.84829
 Alpha virt. eigenvalues --    1.86146   1.87567   1.90174   1.91453   1.91858
 Alpha virt. eigenvalues --    1.92646   1.94473   1.96069   1.96716   1.97632
 Alpha virt. eigenvalues --    1.99178   2.01018   2.02859   2.03851   2.07066
 Alpha virt. eigenvalues --    2.08178   2.08682   2.11504   2.13620   2.18093
 Alpha virt. eigenvalues --    2.18264   2.21490   2.25308   2.26088   2.31466
 Alpha virt. eigenvalues --    2.40514   2.42116   2.42885   2.44239   2.46080
 Alpha virt. eigenvalues --    2.50734   2.58040   2.61152   2.62298   2.63368
 Alpha virt. eigenvalues --    2.65057   2.68312   2.68452   2.70636   2.73683
 Alpha virt. eigenvalues --    2.79405   2.80592   2.82474   2.83852   2.87531
 Alpha virt. eigenvalues --    2.90085   2.91565   2.91685   2.92962   2.94687
 Alpha virt. eigenvalues --    2.96690   3.11854   3.46073   3.48708   3.51327
 Alpha virt. eigenvalues --    3.55637   3.62548   3.72309   4.13634   4.15185
 Alpha virt. eigenvalues --    4.18783  30.79539
          Condensed to atoms (all electrons):
               1          2          3          4          5          6
     1  Zr  10.532086   0.079830  -0.022083   0.000474  -0.088215  -0.027134
     2  Si   0.079830  12.937916  -0.629412  -0.086576  -0.175896   0.027526
     3  O   -0.022083  -0.629412   8.857202   0.098751   0.295191   0.076006
     4  O    0.000474  -0.086576   0.098751   8.588543  -0.033395   0.043853
     5  O   -0.088215  -0.175896   0.295191  -0.033395   8.578896   0.000114
     6  O   -0.027134   0.027526   0.076006   0.043853   0.000114   8.542999
     7  H   -0.005749   0.033053  -0.000337  -0.006117   0.237385   0.006934
     8  H    0.001930   0.056301  -0.020633   0.005860  -0.004441   0.234334
     9  H   -0.004436   0.035131   0.010228   0.227184  -0.004936  -0.004304
    10  O    0.015204  -0.006179  -0.023904   0.000625   0.000919   0.000801
    11  H   -0.087783   0.000308  -0.000757  -0.000002   0.000001   0.000002
    12  O    0.022394  -0.009803  -0.023978  -0.000146   0.001443   0.000028
    13  H   -0.086168   0.000700  -0.000560  -0.000011   0.000000   0.000000
    14  O    0.020189  -0.001436  -0.026046   0.004844   0.000873  -0.003087
    15  H   -0.088917   0.000157   0.000146   0.000311   0.000003   0.000091
               7          8          9         10         11         12
     1  Zr  -0.005749   0.001930  -0.004436   0.015204  -0.087783   0.022394
     2  Si   0.033053   0.056301   0.035131  -0.006179   0.000308  -0.009803
     3  O   -0.000337  -0.020633   0.010228  -0.023904  -0.000757  -0.023978
     4  O   -0.006117   0.005860   0.227184   0.000625  -0.000002  -0.000146
     5  O    0.237385  -0.004441  -0.004936   0.000919   0.000001   0.001443
     6  O    0.006934   0.234334  -0.004304   0.000801   0.000002   0.000028
     7  H    0.370654   0.000057   0.000090   0.000005   0.000000  -0.000018
     8  H    0.000057   0.358112   0.000064  -0.000032  -0.000000  -0.000006
     9  H    0.000090   0.000064   0.361031  -0.000004  -0.000000  -0.000001
    10  O    0.000005  -0.000032  -0.000004   8.625344   0.329773  -0.033410
    11  H    0.000000  -0.000000  -0.000000   0.329773   0.381590  -0.001013
    12  O   -0.000018  -0.000006  -0.000001  -0.033410  -0.001013   8.623110
    13  H   -0.000000  -0.000000  -0.000000  -0.000802  -0.000008   0.326247
    14  O   -0.000000   0.000044  -0.000102  -0.038900  -0.001370  -0.038694
    15  H    0.000000  -0.000000  -0.000002  -0.000694  -0.000007  -0.000982
              13         14         15
     1  Zr  -0.086168   0.020189  -0.088917
     2  Si   0.000700  -0.001436   0.000157
     3  O   -0.000560  -0.026046   0.000146
     4  O   -0.000011   0.004844   0.000311
     5  O    0.000000   0.000873   0.000003
     6  O    0.000000  -0.003087   0.000091
     7  H   -0.000000  -0.000000   0.000000
     8  H   -0.000000   0.000044  -0.000000
     9  H   -0.000000  -0.000102  -0.000002
    10  O   -0.000802  -0.038900  -0.000694
    11  H   -0.000008  -0.001370  -0.000007
    12  O    0.326247  -0.038694  -0.000982
    13  H    0.382369  -0.001546  -0.000011
    14  O   -0.001546   8.608469   0.331322
    15  H   -0.000011   0.331322   0.378313
 Mulliken charges:
               1
     1  Zr   1.738377
     2  Si   1.738380
     3  O   -0.589814
     4  O   -0.844198
     5  O   -0.807942
     6  O   -0.898165
     7  H    0.364043
     8  H    0.368410
     9  H    0.380056
    10  O   -0.868745
    11  H    0.379268
    12  O   -0.865169
    13  H    0.379789
    14  O   -0.854560
    15  H    0.380269
 Sum of Mulliken charges =  -0.00000
 Mulliken charges with hydrogens summed into heavy atoms:
               1
     1  Zr   1.738377
     2  Si   1.738380
     3  O   -0.589814
     4  O   -0.464142
     5  O   -0.443899
     6  O   -0.529754
    10  O   -0.489477
    12  O   -0.485380
    14  O   -0.474291
 Electronic spatial extent (au):  <R**2>=           2159.1036
 Charge=              0.0000 electrons
 Dipole moment (field-independent basis, Debye):
    X=             -1.4191    Y=             -0.2181    Z=             -0.2044  Tot=              1.4502
 Quadrupole moment (field-independent basis, Debye-Ang):
   XX=            -69.0708   YY=            -68.2811   ZZ=            -67.5169
   XY=              0.7056   XZ=             -0.3749   YZ=             -0.3294
 Traceless Quadrupole moment (field-independent basis, Debye-Ang):
   XX=             -0.7812   YY=              0.0085   ZZ=              0.7727
   XY=              0.7056   XZ=             -0.3749   YZ=             -0.3294
 Octapole moment (field-independent basis, Debye-Ang**2):
  XXX=            -56.6938  YYY=             10.1408  ZZZ=             13.1651  XYY=            -15.5061
  XXY=              5.2126  XXZ=              2.4789  XZZ=            -22.3584  YZZ=            -10.0867
  YYZ=            -18.6128  XYZ=             -6.7998
 Hexadecapole moment (field-independent basis, Debye-Ang**3):
 XXXX=          -1828.9013 YYYY=           -315.3471 ZZZZ=           -344.4982 XXXY=             90.1618
 XXXZ=            -17.7938 YYYX=            -47.5247 YYYZ=             -9.3110 ZZZX=             16.7701
 ZZZY=              8.4162 XXYY=           -362.3964 XXZZ=           -250.7053 YYZZ=           -127.8191
 XXYZ=            -14.7681 YYXZ=            -15.4814 ZZXY=             29.4126
 N-N= 6.386974947919D+02 E-N=-3.314968735889D+03  KE= 8.307030119473D+02
 PrsmSu:  requested number of processors reduced to:   2 ShMem   1 Linda.
 PrsmSu:  requested number of processors reduced to:  10 ShMem   1 Linda.
   1 Symmetry operations used in ECPInt.
 ECPInt:  NShTT=    3321 NPrTT=   20810 LenC2=    3186 LenP2D=   15126.
 LDataN:  DoStor=T MaxTD1= 9 Len=  602
 Calling FoFJK, ICntrl=      2127 FMM=F ISym2X=0 I1Cent= 0 IOpClX= 0 NMat=1 NMatS=1 NMatT=0.
 CoulSu:  requested number of processors reduced to:  10 ShMem   1 Linda.
 Defaulting to unpruned grid for atomic number  40.
 Defaulting to unpruned grid for atomic number  40.
 Defaulting to unpruned grid for atomic number  40.
 Defaulting to unpruned grid for atomic number  40.
 Defaulting to unpruned grid for atomic number  40.
 Defaulting to unpruned grid for atomic number  40.
 Defaulting to unpruned grid for atomic number  40.
 Defaulting to unpruned grid for atomic number  40.
 Defaulting to unpruned grid for atomic number  40.
 Defaulting to unpruned grid for atomic number  40.
 Defaulting to unpruned grid for atomic number  40.
 Defaulting to unpruned grid for atomic number  40.
 Defaulting to unpruned grid for atomic number  40.
 Defaulting to unpruned grid for atomic number  40.
 Defaulting to unpruned grid for atomic number  40.
 Defaulting to unpruned grid for atomic number  40.
 ***** Axes restored to original set *****
 -------------------------------------------------------------------
 Center     Atomic                   Forces (Hartrees/Bohr)
 Number     Number              X              Y              Z
 -------------------------------------------------------------------
      1       40           0.005374817    0.000502979    0.000295180
      2       14          -0.003098801   -0.002438452   -0.000089929
      3        8          -0.002270821    0.001440215   -0.000346694
      4        8          -0.000005330    0.000769005    0.000242101
      5        8           0.000242942    0.000471140   -0.000089997
      6        8           0.000042311    0.000373317   -0.000003074
      7        1           0.000084473   -0.000141380   -0.000068335
      8        1           0.000022024   -0.000001168    0.000003983
      9        1           0.000085329    0.000172073    0.000095205
     10        8          -0.000145784   -0.000217183   -0.000142115
     11        1          -0.000012903    0.000017157    0.000047728
     12        8           0.000018790   -0.000017999    0.000181754
     13        1          -0.000041905   -0.000011580   -0.000059670
     14        8          -0.000162214   -0.000908422   -0.000251134
     15        1          -0.000132928   -0.000009701    0.000184997
 -------------------------------------------------------------------
 Cartesian Forces:  Max     0.005374817 RMS     0.001099416

 GradGradGradGradGradGradGradGradGradGradGradGradGradGradGradGradGradGrad
 Berny optimization.
 FormGI is forming the generalized inverse of G from B-inverse, IUseBI=4.
 Internal  Forces:  Max     0.004845042 RMS     0.000996316
 Search for a local minimum.
 Step number   1 out of a maximum of   62
 All quantities printed in internal units (Hartrees-Bohrs-Radians)
 Mixed Optimization -- En-DIIS/RFO-DIIS
 Second derivative matrix not updated -- first step.
 ITU=  0
     Eigenvalues ---    0.00230   0.01596   0.01596   0.01597   0.01597
     Eigenvalues ---    0.01598   0.01598   0.03522   0.03617   0.03636
     Eigenvalues ---    0.03969   0.11780   0.12039   0.12694   0.15564
     Eigenvalues ---    0.15873   0.16000   0.16000   0.16000   0.19523
     Eigenvalues ---    0.20181   0.21252   0.21482   0.21527   0.21945
     Eigenvalues ---    0.25000   0.25000   0.25000   0.40909   0.41958
     Eigenvalues ---    0.42174   0.45992   0.54664   0.54704   0.54724
     Eigenvalues ---    0.56111   0.56113   0.561381000.000001000.00000
     Eigenvalues --- 1000.000001000.000001000.000001000.000001000.00000
     Eigenvalues --- 1000.000001000.000001000.000001000.000001000.00000
     Eigenvalues --- 1000.000001000.00000
 RFO step:  Lambda=-3.12894027D-04 EMin= 2.30000000D-03
 Linear search not attempted -- first point.
 Iteration  1 RMS(Cart)=  0.13071256 RMS(Int)=  0.00306215
 Iteration  2 RMS(Cart)=  0.00518146 RMS(Int)=  0.00000286
 Iteration  3 RMS(Cart)=  0.00000611 RMS(Int)=  0.00000136
 Iteration  4 RMS(Cart)=  0.00000000 RMS(Int)=  0.00000136
 Iteration  1 RMS(Cart)=  0.00000175 RMS(Int)=  0.00000062
 Iteration  2 RMS(Cart)=  0.00000134 RMS(Int)=  0.00000067
 Iteration  3 RMS(Cart)=  0.00000102 RMS(Int)=  0.00000077
 Iteration  4 RMS(Cart)=  0.00000078 RMS(Int)=  0.00000088
 Variable       Old X    -DE/DX   Delta X   Delta X   Delta X     New X
                                 (Linear)    (Quad)   (Total)
    R1        3.72697   0.00485   0.00000   0.02620   0.02620   3.75317
    R2        3.65948   0.00013   0.00000   0.00060   0.00060   3.66008
    R3        3.66086   0.00011   0.00000   0.00051   0.00051   3.66137
    R4        3.64668  -0.00089   0.00000  -0.00406  -0.00406   3.64261
    R5        3.07642   0.00187   0.00000   0.00334   0.00334   3.07976
    R6        3.12402   0.00100   0.00000   0.00236   0.00236   3.12638
    R7        3.14036  -0.00048   0.00000  -0.00118  -0.00118   3.13918
    R8        3.12676   0.00004   0.00000   0.00009   0.00009   3.12685
    R9        1.82096   0.00004   0.00000   0.00007   0.00007   1.82103
   R10        1.82079   0.00005   0.00000   0.00009   0.00009   1.82087
   R11        1.82132  -0.00001   0.00000  -0.00003  -0.00003   1.82129
   R12        1.80835  -0.00005   0.00000  -0.00008  -0.00008   1.80826
   R13        1.80858  -0.00007   0.00000  -0.00013  -0.00013   1.80845
   R14        1.80856  -0.00008   0.00000  -0.00014  -0.00014   1.80842
    A1        1.88835  -0.00066   0.00000  -0.00299  -0.00299   1.88536
    A2        1.88384   0.00009   0.00000   0.00069   0.00069   1.88453
    A3        1.91625  -0.00034   0.00000  -0.00132  -0.00133   1.91492
    A4        1.92387   0.00022   0.00000   0.00082   0.00082   1.92469
    A5        1.92200   0.00016   0.00000   0.00001   0.00001   1.92201
    A6        1.92870   0.00049   0.00000   0.00267   0.00267   1.93136
    A7        0.33557  -0.00209   0.00000   0.00000  -0.00000   0.33557
    A8        1.85659  -0.00021   0.00000  -0.00172  -0.00172   1.85487
    A9        1.91681   0.00002   0.00000   0.00058   0.00058   1.91739
   A10        2.00442   0.00022   0.00000   0.00139   0.00139   2.00581
   A11        1.98570   0.00006   0.00000   0.00002   0.00002   1.98572
   A12        1.86878  -0.00027   0.00000  -0.00181  -0.00181   1.86697
   A13        1.83492   0.00018   0.00000   0.00155   0.00155   1.83647
   A14        2.53073   0.00398   0.00000   0.00168   0.00167   2.53240
   A15        2.02426   0.00038   0.00000   0.00239   0.00239   2.02665
   A16        2.02687  -0.00006   0.00000  -0.00037  -0.00037   2.02651
   A17        2.01602  -0.00001   0.00000  -0.00007  -0.00007   2.01595
   A18        3.25345   0.00003   0.00000   0.00208   0.00208   3.25553
   A19        3.31618  -0.00002   0.00000  -0.00110  -0.00110   3.31507
   A20        3.06102  -0.00032   0.00000  -0.01953  -0.01953   3.04149
   A21        2.99346   0.00002   0.00000   0.00125   0.00125   2.99471
   A22        3.23758  -0.00002   0.00000  -0.00116  -0.00116   3.23642
   A23        3.13210  -0.00022   0.00000  -0.01322  -0.01322   3.11889
    D1       -2.38083  -0.00023   0.00000  -0.13401  -0.13401  -2.51485
    D2        1.82065  -0.00019   0.00000  -0.13371  -0.13371   1.68694
    D3       -0.28279  -0.00064   0.00000  -0.13659  -0.13659  -0.41938
    D4       -0.52207  -0.00016   0.00000  -0.00581  -0.00581  -0.52788
    D5       -2.67828  -0.00011   0.00000  -0.00511  -0.00510  -2.68338
    D6        1.54171  -0.00050   0.00000  -0.00843  -0.00843   1.53328
    D7        2.89579   0.00002   0.00000  -0.00022  -0.00022   2.89557
    D8       -1.27479  -0.00006   0.00000  -0.00066  -0.00066  -1.27546
    D9        0.74460   0.00002   0.00000   0.00010   0.00010   0.74470
   D10        0.61661  -0.00029   0.00000  -0.00416  -0.00416   0.61245
   D11       -1.46199  -0.00008   0.00000  -0.00239  -0.00239  -1.46438
   D12        2.78200   0.00010   0.00000  -0.00119  -0.00119   2.78082
   D13        1.54677   0.00019   0.00000   0.00149   0.00149   1.54825
   D14       -2.67951  -0.00012   0.00000  -0.00108  -0.00108  -2.68060
   D15       -0.56199  -0.00009   0.00000  -0.00115  -0.00115  -0.56315
         Item               Value     Threshold  Converged?
 Maximum Force            0.005128     0.000450     NO 
 RMS     Force            0.000806     0.000300     NO 
 Maximum Displacement     0.356756     0.001800     NO 
 RMS     Displacement     0.131627     0.001200     NO 
 Predicted change in Energy=-1.651786D-04
 GradGradGradGradGradGradGradGradGradGradGradGradGradGradGradGradGradGrad

                          Input orientation:                          
 ---------------------------------------------------------------------
 Center     Atomic      Atomic             Coordinates (Angstroms)
 Number     Number       Type             X           Y           Z
 ---------------------------------------------------------------------
      1         40           0        1.388319   -0.011694   -0.035974
      2         14           0       -2.030694    0.455949    0.000680
      3          8           0       -0.578995   -0.284099   -0.030026
      4          8           0       -1.814754    1.865864    0.838884
      5          8           0       -3.165343   -0.554947    0.671641
      6          8           0       -2.636584    0.864620   -1.483835
      7          1           0       -2.856091   -1.126954    1.382715
      8          1           0       -3.167759    0.186577   -1.916265
      9          1           0       -2.523106    2.515183    0.766497
     10          8           0        2.178855   -1.376363   -1.160272
     11          1           0        2.694744   -1.952130   -1.724180
     12          8           0        2.022487   -0.192313    1.785882
     13          1           0        2.468555   -0.165691    2.632135
     14          8           0        1.800316    1.739168   -0.729039
     15          1           0        1.926599    2.640819   -1.023792
 ---------------------------------------------------------------------
                    Distance matrix (angstroms):
                    1          2          3          4          5
     1  Zr   0.000000
     2  Si   3.451041   0.000000
     3  O    1.986092   1.629737   0.000000
     4  O    3.814483   1.654411   2.627631   0.000000
     5  O    4.640224   1.661183   2.693491   2.777119   0.000000
     6  O    4.366242   1.654660   2.768897   2.659496   2.634546
     7  H    4.612104   2.257628   2.809165   3.215136   0.963564
     8  H    4.932814   2.245030   3.237459   3.498782   2.692048
     9  H    4.725284   2.251530   3.499999   0.963648   3.138019
    10  O    1.936832   4.735555   3.174308   5.518838   5.708860
    11  H    2.884801   5.577073   4.045967   6.440648   6.483262
    12  O    1.937512   4.476099   3.173902   4.456155   5.318516
    13  H    2.882609   5.249213   4.048294   5.068501   5.977948
    14  O    1.927588   4.105579   3.200523   3.942482   5.646471
    15  H    2.881207   4.635015   3.977526   4.250628   6.246221
                    6          7          8          9         10
     6  O    0.000000
     7  H    3.497379   0.000000
     8  H    0.963787   3.564516   0.000000
     9  H    2.793068   3.708877   3.610428   0.000000
    10  O    5.321199   5.646208   5.621441   6.400391   0.000000
    11  H    6.034477   6.414474   6.243389   7.306594   0.956891
    12  O    5.789223   4.983635   6.386557   5.388144   3.179033
    13  H    6.638162   5.553101   7.251212   5.965264   3.991492
    14  O    4.584827   5.861424   5.338709   4.640130   3.167931
    15  H    4.918248   6.546870   5.724709   4.797999   4.027408
                   11         12         13         14         15
    11  H    0.000000
    12  O    3.983644   0.000000
    13  H    4.713810   0.956990   0.000000
    14  O    3.926320   3.178806   3.920781   0.000000
    15  H    4.709117   3.991253   4.640692   0.956975   0.000000
 Stoichiometry    H6O7SiZr
 Framework group  C1[X(H6O7SiZr)]
 Deg. of freedom    39
 Full point group                 C1      NOp   1
 Largest Abelian subgroup         C1      NOp   1
 Largest concise Abelian subgroup C1      NOp   1
                         Standard orientation:                         
 ---------------------------------------------------------------------
 Center     Atomic      Atomic             Coordinates (Angstroms)
 Number     Number       Type             X           Y           Z
 ---------------------------------------------------------------------
      1         40           0       -1.336999   -0.023946    0.020896
      2         14           0        2.113799   -0.063058    0.008968
      3          8           0        0.569987   -0.550115    0.197287
      4          8           0        2.107853    1.025628   -1.236746
      5          8           0        3.092298   -1.378982   -0.256385
      6          8           0        2.766978    0.706713    1.319964
      7          1           0        2.706008   -2.098396   -0.767932
      8          1           0        3.192531    0.134090    1.967955
      9          1           0        2.902637    1.561498   -1.335628
     10          8           0       -2.321386   -0.842445    1.474292
     11          1           0       -2.917468   -1.134612    2.163469
     12          8           0       -1.983801   -0.682238   -1.682703
     13          1           0       -2.418099   -0.863563   -2.515972
     14          8           0       -1.493225    1.895136    0.112091
     15          1           0       -1.488466    2.852067    0.104313
 ---------------------------------------------------------------------
 Rotational constants (GHZ):           1.6551357           0.4975487           0.4965880
 Basis read from rwf:  (5D, 7F)
 Pseudo-potential data read from rwf file.
 There are   300 symmetry adapted cartesian basis functions of A   symmetry.
 There are   266 symmetry adapted basis functions of A   symmetry.
   266 basis functions,   576 primitive gaussians,   300 cartesian basis functions
    44 alpha electrons       44 beta electrons
       nuclear repulsion energy       637.7475146430 Hartrees.
 NAtoms=   15 NActive=   15 NUniq=   15 SFac= 1.00D+00 NAtFMM=   60 NAOKFM=F Big=F
 Integral buffers will be    131072 words long.
 Raffenetti 2 integral format.
 Two-electron integral symmetry is turned on.
 Nuclear repulsion after empirical dispersion term =      637.7371051133 Hartrees.
 One-electron integrals computed using PRISM.
 PrsmSu:  requested number of processors reduced to:   4 ShMem   1 Linda.
   1 Symmetry operations used in ECPInt.
 ECPInt:  NShTT=    3321 NPrTT=   20810 LenC2=    3183 LenP2D=   15117.
 LDataN:  DoStor=T MaxTD1= 8 Len=  415
 NBasis=   266 RedAO= T EigKep=  1.10D-04  NBF=   266
 NBsUse=   266 1.00D-06 EigRej= -1.00D+00 NBFU=   266
 Defaulting to unpruned grid for atomic number  40.
 Initial guess from the checkpoint file:  "/localscratch/sarashs.35250441.0/Gau-3636.chk"
 B after Tr=     0.000000   -0.000000    0.000000
         Rot=    0.995701   -0.092556    0.003248   -0.001457 Ang= -10.63 deg.
 ExpMin= 1.01D-02 ExpMax= 1.61D+04 ExpMxC= 2.43D+03 IAcc=3 IRadAn=         5 AccDes= 0.00D+00
 Harris functional with IExCor=  402 and IRadAn=       5 diagonalized for initial guess.
 HarFok:  IExCor=  402 AccDes= 0.00D+00 IRadAn=         5 IDoV= 1 UseB2=F ITyADJ=14
 ICtDFT=  3500011 ScaDFX=  1.000000  1.000000  1.000000  1.000000
 Defaulting to unpruned grid for atomic number  40.
 FoFCou: FMM=F IPFlag=           0 FMFlag=      100000 FMFlg1=           0
         NFxFlg=           0 DoJE=T BraDBF=F KetDBF=T FulRan=T
         wScrn=  0.000000 ICntrl=       500 IOpCl=  0 I1Cent=   200000004 NGrid=           0
         NMat0=    1 NMatS0=      1 NMatT0=    0 NMatD0=    1 NMtDS0=    0 NMtDT0=    0
 Petite list used in FoFCou.
 Requested convergence on RMS density matrix=1.00D-08 within 128 cycles.
 Requested convergence on MAX density matrix=1.00D-06.
 Requested convergence on             energy=1.00D-06.
 No special actions if energy rises.
 Defaulting to unpruned grid for atomic number  40.
 Defaulting to unpruned grid for atomic number  40.
 Defaulting to unpruned grid for atomic number  40.
 Defaulting to unpruned grid for atomic number  40.
 Defaulting to unpruned grid for atomic number  40.
 Defaulting to unpruned grid for atomic number  40.
 Defaulting to unpruned grid for atomic number  40.
 Defaulting to unpruned grid for atomic number  40.
 Defaulting to unpruned grid for atomic number  40.
 Defaulting to unpruned grid for atomic number  40.
 Defaulting to unpruned grid for atomic number  40.
 Defaulting to unpruned grid for atomic number  40.
 Defaulting to unpruned grid for atomic number  40.
 Defaulting to unpruned grid for atomic number  40.
 Defaulting to unpruned grid for atomic number  40.
 Defaulting to unpruned grid for atomic number  40.
 SCF Done:  E(RB3LYP) =  -867.127397897     A.U. after   12 cycles
            NFock= 12  Conv=0.29D-08     -V/T= 2.0439
 PrsmSu:  requested number of processors reduced to:   2 ShMem   1 Linda.
 PrsmSu:  requested number of processors reduced to:  10 ShMem   1 Linda.
   1 Symmetry operations used in ECPInt.
 ECPInt:  NShTT=    3321 NPrTT=   20810 LenC2=    3183 LenP2D=   15117.
 LDataN:  DoStor=T MaxTD1= 9 Len=  602
 Calling FoFJK, ICntrl=      2127 FMM=F ISym2X=0 I1Cent= 0 IOpClX= 0 NMat=1 NMatS=1 NMatT=0.
 CoulSu:  requested number of processors reduced to:  10 ShMem   1 Linda.
 Defaulting to unpruned grid for atomic number  40.
 Defaulting to unpruned grid for atomic number  40.
 Defaulting to unpruned grid for atomic number  40.
 Defaulting to unpruned grid for atomic number  40.
 Defaulting to unpruned grid for atomic number  40.
 Defaulting to unpruned grid for atomic number  40.
 Defaulting to unpruned grid for atomic number  40.
 Defaulting to unpruned grid for atomic number  40.
 Defaulting to unpruned grid for atomic number  40.
 Defaulting to unpruned grid for atomic number  40.
 Defaulting to unpruned grid for atomic number  40.
 Defaulting to unpruned grid for atomic number  40.
 Defaulting to unpruned grid for atomic number  40.
 Defaulting to unpruned grid for atomic number  40.
 Defaulting to unpruned grid for atomic number  40.
 Defaulting to unpruned grid for atomic number  40.
 ***** Axes restored to original set *****
 -------------------------------------------------------------------
 Center     Atomic                   Forces (Hartrees/Bohr)
 Number     Number              X              Y              Z
 -------------------------------------------------------------------
      1       40          -0.000710774   -0.001522985    0.001140437
      2       14          -0.000675322   -0.002204968    0.000007887
      3        8           0.001653176    0.002432451   -0.000375744
      4        8           0.000063729    0.000516465    0.000127774
      5        8          -0.000045611    0.000243524    0.000031905
      6        8          -0.000104312    0.000235380   -0.000040790
      7        1           0.000089679   -0.000083450   -0.000137972
      8        1           0.000003216   -0.000011451   -0.000014318
      9        1           0.000080948    0.000031481    0.000035440
     10        8          -0.000292521    0.000160236    0.000197259
     11        1           0.000056828    0.000019589    0.000006878
     12        8          -0.000016673    0.000066470   -0.000798266
     13        1          -0.000040459    0.000018921    0.000067239
     14        8          -0.000099517   -0.000043797   -0.000291771
     15        1           0.000037614    0.000142134    0.000044041
 -------------------------------------------------------------------
 Cartesian Forces:  Max     0.002432451 RMS     0.000660264

 GradGradGradGradGradGradGradGradGradGradGradGradGradGradGradGradGradGrad
 Berny optimization.
 Using GEDIIS/GDIIS optimizer.
 FormGI is forming the generalized inverse of G from B-inverse, IUseBI=4.
 Internal  Forces:  Max     0.002771693 RMS     0.000514860
 Search for a local minimum.
 Step number   2 out of a maximum of   62
 All quantities printed in internal units (Hartrees-Bohrs-Radians)
 Mixed Optimization -- En-DIIS/RFO-DIIS
 Swapping is turned off.
 Update second derivatives using D2CorX and points    1    2
 DE= -1.92D-04 DEPred=-1.65D-04 R= 1.16D+00
 TightC=F SS=  1.41D+00  RLast= 2.37D-01 DXNew= 5.0454D-01 7.0981D-01
 Trust test= 1.16D+00 RLast= 2.37D-01 DXMaxT set to 5.05D-01
 ITU=  1  0
     Eigenvalues ---    0.00149   0.01565   0.01596   0.01596   0.01598
     Eigenvalues ---    0.01598   0.01613   0.03508   0.03617   0.03636
     Eigenvalues ---    0.03940   0.11659   0.12025   0.12700   0.15423
     Eigenvalues ---    0.15892   0.15974   0.16000   0.16002   0.20001
     Eigenvalues ---    0.20945   0.21270   0.21518   0.21871   0.24359
     Eigenvalues ---    0.24918   0.25000   0.27520   0.40862   0.41928
     Eigenvalues ---    0.41979   0.47000   0.54664   0.54707   0.54726
     Eigenvalues ---    0.56111   0.56134   0.561461000.000001000.00000
     Eigenvalues --- 1000.000001000.000001000.000001000.000001000.00000
     Eigenvalues --- 1000.000001000.000001000.000001000.000001000.00000
     Eigenvalues --- 1000.000001000.00000
 En-DIIS/RFO-DIIS/Sim-DIIS IScMMF=       -3 using points:     2    1
 RFO step:  Lambda=-1.01904454D-04.
 DidBck=F Rises=F RFO-DIIS coefs:    2.04100   -1.04100
 Iteration  1 RMS(Cart)=  0.13722336 RMS(Int)=  0.00337469
 Iteration  2 RMS(Cart)=  0.00569164 RMS(Int)=  0.00000417
 Iteration  3 RMS(Cart)=  0.00000738 RMS(Int)=  0.00000284
 Iteration  4 RMS(Cart)=  0.00000000 RMS(Int)=  0.00000284
 Iteration  1 RMS(Cart)=  0.00000329 RMS(Int)=  0.00000116
 Iteration  2 RMS(Cart)=  0.00000251 RMS(Int)=  0.00000127
 Iteration  3 RMS(Cart)=  0.00000191 RMS(Int)=  0.00000146
 Iteration  4 RMS(Cart)=  0.00000146 RMS(Int)=  0.00000165
 Iteration  5 RMS(Cart)=  0.00000111 RMS(Int)=  0.00000181
 Iteration  6 RMS(Cart)=  0.00000085 RMS(Int)=  0.00000194
 Variable       Old X    -DE/DX   Delta X   Delta X   Delta X     New X
                                 (Linear)    (Quad)   (Total)
    R1        3.75317  -0.00115   0.02728  -0.02670   0.00058   3.75375
    R2        3.66008  -0.00034   0.00063  -0.00250  -0.00187   3.65821
    R3        3.66137  -0.00071   0.00053  -0.00464  -0.00411   3.65726
    R4        3.64261   0.00017  -0.00423   0.00415  -0.00008   3.64254
    R5        3.07976  -0.00014   0.00348  -0.00371  -0.00024   3.07952
    R6        3.12638   0.00057   0.00246  -0.00013   0.00233   3.12871
    R7        3.13918  -0.00017  -0.00123   0.00040  -0.00083   3.13835
    R8        3.12685   0.00014   0.00010   0.00036   0.00046   3.12731
    R9        1.82103  -0.00004   0.00007  -0.00015  -0.00008   1.82095
   R10        1.82087  -0.00002   0.00009  -0.00012  -0.00003   1.82084
   R11        1.82129   0.00001  -0.00003   0.00005   0.00002   1.82132
   R12        1.80826   0.00001  -0.00009   0.00010   0.00001   1.80827
   R13        1.80845   0.00004  -0.00013   0.00019   0.00006   1.80851
   R14        1.80842   0.00013  -0.00015   0.00040   0.00025   1.80867
    A1        1.88536  -0.00032  -0.00311   0.00042  -0.00270   1.88266
    A2        1.88453   0.00059   0.00072   0.00283   0.00355   1.88808
    A3        1.91492  -0.00031  -0.00138  -0.00060  -0.00199   1.91294
    A4        1.92469  -0.00006   0.00085  -0.00080   0.00005   1.92475
    A5        1.92201   0.00000   0.00001  -0.00075  -0.00075   1.92126
    A6        1.93136   0.00010   0.00278  -0.00101   0.00177   1.93313
    A7        0.33557  -0.00158  -0.00000   0.00000  -0.00000   0.33557
    A8        1.85487  -0.00026  -0.00179  -0.00077  -0.00256   1.85230
    A9        1.91739   0.00007   0.00060   0.00051   0.00111   1.91850
   A10        2.00581   0.00025   0.00145   0.00069   0.00213   2.00794
   A11        1.98572   0.00017   0.00002   0.00089   0.00091   1.98663
   A12        1.86697  -0.00018  -0.00188  -0.00028  -0.00216   1.86481
   A13        1.83647  -0.00004   0.00161  -0.00096   0.00065   1.83712
   A14        2.53240   0.00277   0.00174  -0.00166   0.00007   2.53246
   A15        2.02665   0.00015   0.00249  -0.00070   0.00179   2.02844
   A16        2.02651  -0.00011  -0.00038  -0.00061  -0.00099   2.02552
   A17        2.01595   0.00001  -0.00007   0.00012   0.00004   2.01599
   A18        3.25553   0.00009   0.00216   0.00571   0.00787   3.26340
   A19        3.31507  -0.00011  -0.00115  -0.00805  -0.00920   3.30588
   A20        3.04149  -0.00003  -0.02033   0.01317  -0.00716   3.03432
   A21        2.99471  -0.00004   0.00130  -0.00441  -0.00310   2.99160
   A22        3.23642   0.00005  -0.00121   0.00472   0.00352   3.23994
   A23        3.11889  -0.00015  -0.01376  -0.00190  -0.01566   3.10323
    D1       -2.51485  -0.00006  -0.13951  -0.00199  -0.14151  -2.65635
    D2        1.68694  -0.00013  -0.13919  -0.00285  -0.14204   1.54490
    D3       -0.41938  -0.00043  -0.14219  -0.00299  -0.14518  -0.56455
    D4       -0.52788   0.00003  -0.00605   0.00287  -0.00318  -0.53106
    D5       -2.68338  -0.00006  -0.00531   0.00198  -0.00333  -2.68671
    D6        1.53328  -0.00022  -0.00878   0.00239  -0.00639   1.52690
    D7        2.89557   0.00000  -0.00022  -0.00033  -0.00055   2.89503
    D8       -1.27546   0.00002  -0.00069   0.00031  -0.00038  -1.27583
    D9        0.74470  -0.00005   0.00010  -0.00056  -0.00046   0.74424
   D10        0.61245  -0.00026  -0.00433  -0.00160  -0.00593   0.60652
   D11       -1.46438  -0.00009  -0.00249  -0.00155  -0.00404  -1.46841
   D12        2.78082   0.00006  -0.00124  -0.00107  -0.00231   2.77851
   D13        1.54825   0.00016   0.00155   0.00031   0.00186   1.55011
   D14       -2.68060  -0.00014  -0.00113  -0.00045  -0.00157  -2.68217
   D15       -0.56315  -0.00005  -0.00120  -0.00006  -0.00127  -0.56441
         Item               Value     Threshold  Converged?
 Maximum Force            0.000941     0.000450     NO 
 RMS     Force            0.000255     0.000300     YES
 Maximum Displacement     0.362452     0.001800     NO 
 RMS     Displacement     0.138265     0.001200     NO 
 Predicted change in Energy=-5.390924D-05
 GradGradGradGradGradGradGradGradGradGradGradGradGradGradGradGradGradGrad

                          Input orientation:                          
 ---------------------------------------------------------------------
 Center     Atomic      Atomic             Coordinates (Angstroms)
 Number     Number       Type             X           Y           Z
 ---------------------------------------------------------------------
      1         40           0        1.388650   -0.009008   -0.061749
      2         14           0       -2.030687    0.453180    0.013321
      3          8           0       -0.578921   -0.281272   -0.079334
      4          8           0       -1.812158    1.784612    0.972846
      5          8           0       -3.167332   -0.610893    0.591124
      6          8           0       -2.634903    0.995288   -1.428810
      7          1           0       -2.858041   -1.245913    1.246499
      8          1           0       -3.166707    0.359899   -1.921125
      9          1           0       -2.518050    2.440389    0.958298
     10          8           0        2.194880   -1.435158   -1.093044
     11          1           0        2.725824   -2.044043   -1.605891
     12          8           0        1.992412   -0.085659    1.775403
     13          1           0        2.411711   -0.004234    2.631820
     14          8           0        1.812309    1.698450   -0.849492
     15          1           0        1.947561    2.588352   -1.174816
 ---------------------------------------------------------------------
                    Distance matrix (angstroms):
                    1          2          3          4          5
     1  Zr   0.000000
     2  Si   3.451250   0.000000
     3  O    1.986398   1.629610   0.000000
     4  O    3.812169   1.655643   2.625992   0.000000
     5  O    4.641711   1.660744   2.694073   2.778606   0.000000
     6  O    4.366514   1.654902   2.770876   2.658551   2.635040
     7  H    4.612573   2.256581   2.807623   3.217582   0.963549
     8  H    4.934030   2.245289   3.240359   3.498525   2.693295
     9  H    4.722536   2.253775   3.499191   0.963607   3.141132
    10  O    1.935841   4.758707   3.170653   5.539962   5.680594
    11  H    2.883362   5.610915   4.044636   6.473157   6.450587
    12  O    1.935338   4.424998   3.176487   4.314715   5.319901
    13  H    2.881318   5.176936   4.046108   4.877831   5.971448
    14  O    1.927547   4.130831   3.198504   4.057721   5.674968
    15  H    2.880551   4.668735   3.977177   4.403855   6.286163
                    6          7          8          9         10
     6  O    0.000000
     7  H    3.497149   0.000000
     8  H    0.963799   3.564793   0.000000
     9  H    2.792894   3.713149   3.611133   0.000000
    10  O    5.417252   5.571471   5.714417   6.437358   0.000000
    11  H    6.164923   6.320813   6.371830   7.360938   0.956898
    12  O    5.731272   5.015259   6.362339   5.233817   3.176496
    13  H    6.554088   5.588485   7.209761   5.751469   3.996145
    14  O    4.539575   5.905473   5.265996   4.750851   3.166257
    15  H    4.858121   6.607432   5.628385   4.951136   4.031933
                   11         12         13         14         15
    11  H    0.000000
    12  O    3.975715   0.000000
    13  H    4.713564   0.957023   0.000000
    14  O    3.925926   3.178924   3.921473   0.000000
    15  H    4.717053   3.981976   4.628975   0.957107   0.000000
 Stoichiometry    H6O7SiZr
 Framework group  C1[X(H6O7SiZr)]
 Deg. of freedom    39
 Full point group                 C1      NOp   1
 Largest Abelian subgroup         C1      NOp   1
 Largest concise Abelian subgroup C1      NOp   1
                         Standard orientation:                         
 ---------------------------------------------------------------------
 Center     Atomic      Atomic             Coordinates (Angstroms)
 Number     Number       Type             X           Y           Z
 ---------------------------------------------------------------------
      1         40           0       -1.337245   -0.025787    0.018598
      2         14           0        2.113747   -0.065137    0.003275
      3          8           0        0.569841   -0.566367    0.147337
      4          8           0        2.104910    1.127357   -1.145216
      5          8           0        3.093678   -1.351988   -0.373312
      6          8           0        2.767249    0.593590    1.373572
      7          1           0        2.706214   -2.026961   -0.941388
      8          1           0        3.193906   -0.030521    1.971366
      9          1           0        2.897811    1.672261   -1.199302
     10          8           0       -2.357100   -1.156336    1.214104
     11          1           0       -2.978405   -1.602049    1.789407
     12          8           0       -1.916868   -0.287232   -1.809302
     13          1           0       -2.306527   -0.275031   -2.683320
     14          8           0       -1.522110    1.821692    0.536368
     15          1           0       -1.532478    2.759955    0.725069
 ---------------------------------------------------------------------
 Rotational constants (GHZ):           1.6560671           0.4976975           0.4966722
 Basis read from rwf:  (5D, 7F)
 Pseudo-potential data read from rwf file.
 There are   300 symmetry adapted cartesian basis functions of A   symmetry.
 There are   266 symmetry adapted basis functions of A   symmetry.
   266 basis functions,   576 primitive gaussians,   300 cartesian basis functions
    44 alpha electrons       44 beta electrons
       nuclear repulsion energy       637.7862714355 Hartrees.
 NAtoms=   15 NActive=   15 NUniq=   15 SFac= 1.00D+00 NAtFMM=   60 NAOKFM=F Big=F
 Integral buffers will be    131072 words long.
 Raffenetti 2 integral format.
 Two-electron integral symmetry is turned on.
 Nuclear repulsion after empirical dispersion term =      637.7758721718 Hartrees.
 One-electron integrals computed using PRISM.
 PrsmSu:  requested number of processors reduced to:   4 ShMem   1 Linda.
   1 Symmetry operations used in ECPInt.
 ECPInt:  NShTT=    3321 NPrTT=   20810 LenC2=    3180 LenP2D=   15118.
 LDataN:  DoStor=T MaxTD1= 8 Len=  415
 NBasis=   266 RedAO= T EigKep=  1.08D-04  NBF=   266
 NBsUse=   266 1.00D-06 EigRej= -1.00D+00 NBFU=   266
 Defaulting to unpruned grid for atomic number  40.
 Initial guess from the checkpoint file:  "/localscratch/sarashs.35250441.0/Gau-3636.chk"
 B after Tr=    -0.000000    0.000000   -0.000000
         Rot=    0.996350   -0.085290    0.003399   -0.001050 Ang=  -9.79 deg.
 ExpMin= 1.01D-02 ExpMax= 1.61D+04 ExpMxC= 2.43D+03 IAcc=3 IRadAn=         5 AccDes= 0.00D+00
 Harris functional with IExCor=  402 and IRadAn=       5 diagonalized for initial guess.
 HarFok:  IExCor=  402 AccDes= 0.00D+00 IRadAn=         5 IDoV= 1 UseB2=F ITyADJ=14
 ICtDFT=  3500011 ScaDFX=  1.000000  1.000000  1.000000  1.000000
 Defaulting to unpruned grid for atomic number  40.
 FoFCou: FMM=F IPFlag=           0 FMFlag=      100000 FMFlg1=           0
         NFxFlg=           0 DoJE=T BraDBF=F KetDBF=T FulRan=T
         wScrn=  0.000000 ICntrl=       500 IOpCl=  0 I1Cent=   200000004 NGrid=           0
         NMat0=    1 NMatS0=      1 NMatT0=    0 NMatD0=    1 NMtDS0=    0 NMtDT0=    0
 Petite list used in FoFCou.
 Requested convergence on RMS density matrix=1.00D-08 within 128 cycles.
 Requested convergence on MAX density matrix=1.00D-06.
 Requested convergence on             energy=1.00D-06.
 No special actions if energy rises.
 Defaulting to unpruned grid for atomic number  40.
 Defaulting to unpruned grid for atomic number  40.
 Defaulting to unpruned grid for atomic number  40.
 Defaulting to unpruned grid for atomic number  40.
 Defaulting to unpruned grid for atomic number  40.
 Defaulting to unpruned grid for atomic number  40.
 Defaulting to unpruned grid for atomic number  40.
 Defaulting to unpruned grid for atomic number  40.
 Defaulting to unpruned grid for atomic number  40.
 Defaulting to unpruned grid for atomic number  40.
 Defaulting to unpruned grid for atomic number  40.
 Defaulting to unpruned grid for atomic number  40.
 Defaulting to unpruned grid for atomic number  40.
 Defaulting to unpruned grid for atomic number  40.
 Defaulting to unpruned grid for atomic number  40.
 Defaulting to unpruned grid for atomic number  40.
 SCF Done:  E(RB3LYP) =  -867.127461846     A.U. after   12 cycles
            NFock= 12  Conv=0.30D-08     -V/T= 2.0439
 PrsmSu:  requested number of processors reduced to:   2 ShMem   1 Linda.
 PrsmSu:  requested number of processors reduced to:  10 ShMem   1 Linda.
   1 Symmetry operations used in ECPInt.
 ECPInt:  NShTT=    3321 NPrTT=   20810 LenC2=    3180 LenP2D=   15118.
 LDataN:  DoStor=T MaxTD1= 9 Len=  602
 Calling FoFJK, ICntrl=      2127 FMM=F ISym2X=0 I1Cent= 0 IOpClX= 0 NMat=1 NMatS=1 NMatT=0.
 CoulSu:  requested number of processors reduced to:  10 ShMem   1 Linda.
 Defaulting to unpruned grid for atomic number  40.
 Defaulting to unpruned grid for atomic number  40.
 Defaulting to unpruned grid for atomic number  40.
 Defaulting to unpruned grid for atomic number  40.
 Defaulting to unpruned grid for atomic number  40.
 Defaulting to unpruned grid for atomic number  40.
 Defaulting to unpruned grid for atomic number  40.
 Defaulting to unpruned grid for atomic number  40.
 Defaulting to unpruned grid for atomic number  40.
 Defaulting to unpruned grid for atomic number  40.
 Defaulting to unpruned grid for atomic number  40.
 Defaulting to unpruned grid for atomic number  40.
 Defaulting to unpruned grid for atomic number  40.
 Defaulting to unpruned grid for atomic number  40.
 Defaulting to unpruned grid for atomic number  40.
 Defaulting to unpruned grid for atomic number  40.
 ***** Axes restored to original set *****
 -------------------------------------------------------------------
 Center     Atomic                   Forces (Hartrees/Bohr)
 Number     Number              X              Y              Z
 -------------------------------------------------------------------
      1       40          -0.001463763   -0.001402347    0.000858711
      2       14          -0.000379721   -0.001085712    0.000115749
      3        8           0.001504060    0.002099988   -0.000286863
      4        8           0.000109741    0.000047057   -0.000080270
      5        8          -0.000085204    0.000106275    0.000081720
      6        8          -0.000050913   -0.000005661    0.000028354
      7        1           0.000048621   -0.000106272   -0.000108555
      8        1          -0.000007995   -0.000002806   -0.000025389
      9        1           0.000028935   -0.000013478   -0.000048089
     10        8          -0.000024986   -0.000298379   -0.000124732
     11        1           0.000067469    0.000021383    0.000007658
     12        8           0.000388708   -0.000025394   -0.000206207
     13        1          -0.000133793    0.000025848    0.000080831
     14        8          -0.000071709    0.000640781   -0.000285673
     15        1           0.000070551   -0.000001283   -0.000007242
 -------------------------------------------------------------------
 Cartesian Forces:  Max     0.002099988 RMS     0.000554742

 GradGradGradGradGradGradGradGradGradGradGradGradGradGradGradGradGradGrad
 Berny optimization.
 Using GEDIIS/GDIIS optimizer.
 FormGI is forming the generalized inverse of G from B-inverse, IUseBI=4.
 Internal  Forces:  Max     0.002258287 RMS     0.000436999
 Search for a local minimum.
 Step number   3 out of a maximum of   62
 All quantities printed in internal units (Hartrees-Bohrs-Radians)
 Mixed Optimization -- En-DIIS/RFO-DIIS
 Swapping is turned off.
 Update second derivatives using D2CorX and points    1    2    3
 DE= -6.39D-05 DEPred=-5.39D-05 R= 1.19D+00
 TightC=F SS=  1.41D+00  RLast= 2.49D-01 DXNew= 8.4853D-01 7.4666D-01
 Trust test= 1.19D+00 RLast= 2.49D-01 DXMaxT set to 7.47D-01
 ITU=  1  1  0
     Eigenvalues ---    0.00118   0.01533   0.01596   0.01597   0.01598
     Eigenvalues ---    0.01600   0.01689   0.03485   0.03617   0.03636
     Eigenvalues ---    0.04032   0.11578   0.12019   0.12733   0.15351
     Eigenvalues ---    0.15883   0.15993   0.16001   0.16006   0.19900
     Eigenvalues ---    0.21093   0.21348   0.21596   0.22492   0.24224
     Eigenvalues ---    0.24882   0.25007   0.29241   0.40898   0.41960
     Eigenvalues ---    0.42080   0.47465   0.54665   0.54707   0.54726
     Eigenvalues ---    0.56112   0.56132   0.561431000.000001000.00000
     Eigenvalues --- 1000.000001000.000001000.000001000.000001000.00000
     Eigenvalues --- 1000.000001000.000001000.000001000.000001000.00000
     Eigenvalues --- 1000.000001000.00000
 En-DIIS/RFO-DIIS/Sim-DIIS IScMMF=       -3 using points:     3    2    1
 RFO step:  Lambda=-2.54211544D-05.
 DidBck=F Rises=F RFO-DIIS coefs:    1.23806   -0.07124   -0.16682
 Iteration  1 RMS(Cart)=  0.05327528 RMS(Int)=  0.00051474
 Iteration  2 RMS(Cart)=  0.00084020 RMS(Int)=  0.00000169
 Iteration  3 RMS(Cart)=  0.00000015 RMS(Int)=  0.00000169
 Iteration  1 RMS(Cart)=  0.00000137 RMS(Int)=  0.00000048
 Iteration  2 RMS(Cart)=  0.00000104 RMS(Int)=  0.00000053
 Iteration  3 RMS(Cart)=  0.00000080 RMS(Int)=  0.00000061
 Variable       Old X    -DE/DX   Delta X   Delta X   Delta X     New X
                                 (Linear)    (Quad)   (Total)
    R1        3.75375  -0.00124   0.00451  -0.00629  -0.00178   3.75196
    R2        3.65821   0.00028  -0.00034   0.00142   0.00108   3.65929
    R3        3.65726  -0.00004  -0.00089   0.00012  -0.00077   3.65649
    R4        3.64254   0.00069  -0.00070   0.00321   0.00251   3.64505
    R5        3.07952  -0.00025   0.00050  -0.00107  -0.00057   3.07894
    R6        3.12871  -0.00003   0.00095  -0.00032   0.00062   3.12933
    R7        3.13835   0.00002  -0.00039   0.00015  -0.00025   3.13810
    R8        3.12731   0.00002   0.00012  -0.00000   0.00012   3.12743
    R9        1.82095  -0.00003  -0.00001  -0.00005  -0.00006   1.82090
   R10        1.82084   0.00002   0.00001   0.00003   0.00003   1.82088
   R11        1.82132   0.00002   0.00000   0.00003   0.00003   1.82135
   R12        1.80827   0.00002  -0.00001   0.00004   0.00003   1.80830
   R13        1.80851   0.00002  -0.00001   0.00003   0.00002   1.80853
   R14        1.80867   0.00001   0.00004   0.00000   0.00004   1.80871
    A1        1.88266  -0.00021  -0.00114  -0.00060  -0.00174   1.88092
    A2        1.88808   0.00065   0.00096   0.00239   0.00335   1.89143
    A3        1.91294  -0.00039  -0.00069  -0.00139  -0.00208   1.91086
    A4        1.92475  -0.00015   0.00015  -0.00055  -0.00040   1.92435
    A5        1.92126   0.00014  -0.00018   0.00035   0.00017   1.92143
    A6        1.93313  -0.00004   0.00087  -0.00020   0.00067   1.93380
    A7        0.33557  -0.00129  -0.00000   0.00000   0.00000   0.33557
    A8        1.85230  -0.00020  -0.00090  -0.00087  -0.00176   1.85054
    A9        1.91850   0.00004   0.00036   0.00025   0.00061   1.91911
   A10        2.00794   0.00012   0.00074   0.00025   0.00098   2.00892
   A11        1.98663   0.00020   0.00022   0.00103   0.00125   1.98788
   A12        1.86481  -0.00005  -0.00082  -0.00022  -0.00103   1.86378
   A13        1.83712  -0.00009   0.00041  -0.00036   0.00005   1.83717
   A14        2.53246   0.00226   0.00029  -0.00037  -0.00008   2.53238
   A15        2.02844  -0.00004   0.00083  -0.00049   0.00034   2.02879
   A16        2.02552  -0.00002  -0.00030  -0.00000  -0.00030   2.02522
   A17        2.01599   0.00003  -0.00000   0.00020   0.00020   2.01619
   A18        3.26340   0.00011   0.00222   0.00576   0.00798   3.27138
   A19        3.30588  -0.00026  -0.00237  -0.01548  -0.01786   3.28802
   A20        3.03432   0.00012  -0.00496   0.00847   0.00350   3.03783
   A21        2.99160  -0.00005  -0.00053  -0.00279  -0.00333   2.98828
   A22        3.23994   0.00009   0.00064   0.00517   0.00582   3.24575
   A23        3.10323  -0.00004  -0.00593  -0.00098  -0.00692   3.09631
    D1       -2.65635   0.00005  -0.05604   0.00075  -0.05530  -2.71165
    D2        1.54490  -0.00001  -0.05612   0.00041  -0.05571   1.48919
    D3       -0.56455  -0.00013  -0.05735   0.00002  -0.05733  -0.62188
    D4       -0.53106   0.00018  -0.00173   0.00320   0.00147  -0.52958
    D5       -2.68671   0.00003  -0.00164   0.00235   0.00071  -2.68601
    D6        1.52690   0.00004  -0.00293   0.00248  -0.00045   1.52644
    D7        2.89503  -0.00004  -0.00017  -0.00080  -0.00096   2.89406
    D8       -1.27583   0.00000  -0.00020  -0.00047  -0.00067  -1.27650
    D9        0.74424  -0.00004  -0.00009  -0.00049  -0.00058   0.74365
   D10        0.60652  -0.00016  -0.00211  -0.00221  -0.00432   0.60221
   D11       -1.46841  -0.00006  -0.00136  -0.00195  -0.00331  -1.47173
   D12        2.77851  -0.00005  -0.00075  -0.00200  -0.00275   2.77576
   D13        1.55011   0.00009   0.00069   0.00037   0.00106   1.55118
   D14       -2.68217  -0.00013  -0.00055  -0.00072  -0.00127  -2.68344
   D15       -0.56441   0.00003  -0.00049   0.00017  -0.00032  -0.56473
         Item               Value     Threshold  Converged?
 Maximum Force            0.001072     0.000450     NO 
 RMS     Force            0.000239     0.000300     YES
 Maximum Displacement     0.134407     0.001800     NO 
 RMS     Displacement     0.053352     0.001200     NO 
 Predicted change in Energy=-1.240748D-05
 GradGradGradGradGradGradGradGradGradGradGradGradGradGradGradGradGradGrad

                          Input orientation:                          
 ---------------------------------------------------------------------
 Center     Atomic      Atomic             Coordinates (Angstroms)
 Number     Number       Type             X           Y           Z
 ---------------------------------------------------------------------
      1         40           0        1.388018   -0.007465   -0.071617
      2         14           0       -2.030128    0.451612    0.018389
      3          8           0       -0.578582   -0.279063   -0.098954
      4          8           0       -1.808479    1.750385    1.021537
      5          8           0       -3.167247   -0.630534    0.560194
      6          8           0       -2.635074    1.043807   -1.403674
      7          1           0       -2.857196   -1.289455    1.191189
      8          1           0       -3.167791    0.426369   -1.917411
      9          1           0       -2.512971    2.407736    1.029424
     10          8           0        2.198618   -1.456627   -1.067887
     11          1           0        2.738201   -2.075719   -1.559062
     12          8           0        1.983256   -0.044784    1.769103
     13          1           0        2.380850    0.057434    2.633616
     14          8           0        1.815486    1.683392   -0.895534
     15          1           0        1.959589    2.566903   -1.234262
 ---------------------------------------------------------------------
                    Distance matrix (angstroms):
                    1          2          3          4          5
     1  Zr   0.000000
     2  Si   3.450010   0.000000
     3  O    1.985453   1.629307   0.000000
     4  O    3.808230   1.655973   2.624273   0.000000
     5  O    4.640888   1.660612   2.694290   2.779904   0.000000
     6  O    4.366327   1.654967   2.771541   2.657848   2.635034
     7  H    4.610858   2.256283   2.806678   3.220126   0.963567
     8  H    4.934629   2.245493   3.241671   3.498309   2.693617
     9  H    4.718389   2.254274   3.497712   0.963577   3.143142
    10  O    1.936413   4.764836   3.168331   5.541430   5.667943
    11  H    2.883255   5.622518   4.044865   6.478492   6.438487
    12  O    1.934929   4.406661   3.179235   4.261308   5.322804
    13  H    2.882397   5.143104   4.042079   4.797433   5.962698
[...]
 ! A16   A(2,5,7)              115.9867         -DE/DX =    0.0                 !
 ! A17   A(2,6,8)              115.5622         -DE/DX =    0.0                 !
 ! A18   L(1,10,11,8,-1)       192.1104         -DE/DX =    0.0                 !
 ! A19   L(1,12,13,7,-1)       184.0174         -DE/DX =    0.0                 !
 ! A20   L(1,14,15,4,-1)       177.2103         -DE/DX =    0.0                 !
 ! A21   L(1,10,11,8,-2)       174.3065         -DE/DX =    0.0                 !
 ! A22   L(1,12,13,7,-2)       193.907          -DE/DX =    0.0                 !
 ! A23   L(1,14,15,4,-2)       179.8009         -DE/DX =    0.0                 !
 ! D1    D(10,1,3,2)          -165.4429         -DE/DX =    0.0                 !
 ! D2    D(12,1,3,2)            75.5806         -DE/DX =    0.0                 !
 ! D3    D(14,1,3,2)           -45.4386         -DE/DX =    0.0                 !
 ! D4    D(4,2,3,1)            -21.3264         -DE/DX =    0.0                 !
 ! D5    D(5,2,3,1)           -144.8418         -DE/DX =    0.0                 !
 ! D6    D(6,2,3,1)             96.3541         -DE/DX =    0.0                 !
 ! D7    D(3,2,4,9)            163.4614         -DE/DX =    0.0                 !
 ! D8    D(5,2,4,9)            -75.6951         -DE/DX =    0.0                 !
 ! D9    D(6,2,4,9)             40.1602         -DE/DX =    0.0                 !
 ! D10   D(3,2,5,7)             31.2375         -DE/DX =    0.0                 !
 ! D11   D(4,2,5,7)            -87.4832         -DE/DX =    0.0                 !
 ! D12   D(6,2,5,7)            155.9513         -DE/DX =    0.0                 !
 ! D13   D(3,2,6,8)             88.7953         -DE/DX =    0.0                 !
 ! D14   D(4,2,6,8)           -153.8686         -DE/DX =    0.0                 !
 ! D15   D(5,2,6,8)            -32.4075         -DE/DX =    0.0                 !
 --------------------------------------------------------------------------------
 GradGradGradGradGradGradGradGradGradGradGradGradGradGradGradGradGradGrad

                          Input orientation:                          
 ---------------------------------------------------------------------
 Center     Atomic      Atomic             Coordinates (Angstroms)
 Number     Number       Type             X           Y           Z
 ---------------------------------------------------------------------
      1         40           0        1.384577   -0.005151   -0.106545
      2         14           0       -2.030269    0.456378    0.011515
      3          8           0       -0.580431   -0.254097   -0.208230
      4          8           0       -1.765618    1.725283    1.042007
      5          8           0       -3.121656   -0.658338    0.580674
      6          8           0       -2.720023    1.090131   -1.352398
      7          1           0       -2.759357   -1.360308    1.132337
      8          1           0       -3.274116    0.484887   -1.857910
      9          1           0       -2.459597    2.392506    1.082904
     10          8           0        2.205411   -1.471479   -1.071056
     11          1           0        2.792851   -2.110255   -1.474698
     12          8           0        1.925391   -0.052688    1.751084
     13          1           0        2.198395    0.143846    2.647292
     14          8           0        1.857521    1.683614   -0.910832
     15          1           0        2.053470    2.539660   -1.291094
 ---------------------------------------------------------------------
                    Distance matrix (angstroms):
                    1          2          3          4          5
     1  Zr   0.000000
     2  Si   3.447915   0.000000
     3  O    1.983323   1.629445   0.000000
     4  O    3.773235   1.655921   2.624063   0.000000
     5  O    4.604895   1.660620   2.691395   2.780884   0.000000
     6  O    4.427136   1.654589   2.773792   2.654709   2.637276
     7  H    4.532490   2.255694   2.787211   3.242923   0.963511
     8  H    5.001083   2.245599   3.243991   3.496236   2.697573
     9  H    4.684146   2.254061   3.493251   0.963569   3.161994
    10  O    1.937568   4.778030   3.160285   5.518460   5.636227
    11  H    2.878635   5.662059   4.053183   6.467209   6.427597
    12  O    1.935335   4.351148   3.187258   4.157826   5.216258
    13  H    2.875433   4.992654   4.004278   4.559746   5.763450
    14  O    1.929373   4.179922   3.192488   4.116122   5.701012
    15  H    2.885591   4.765897   3.989373   4.548846   6.364954
                    6          7          8          9         10
     6  O    0.000000
     7  H    3.490001   0.000000
     8  H    0.963785   3.551238   0.000000
     9  H    2.773932   3.765092   3.598727   0.000000
    10  O    5.558857   5.432883   5.871262   6.429014   0.000000
    11  H    6.375673   6.179487   6.609818   7.375933   0.957103
    12  O    5.702412   4.903017   6.352061   5.064934   3.171096
    13  H    6.409666   5.397859   7.096585   5.403765   4.054064
    14  O    4.636929   5.895385   5.354213   4.807809   3.178256
    15  H    4.989100   6.651772   5.738165   5.101499   4.020042
                   11         12         13         14         15
    11  H    0.000000
    12  O    3.923230   0.000000
    13  H    4.735520   0.957260   0.000000
    14  O    3.947940   3.178859   3.891957   0.000000
    15  H    4.711911   3.998939   4.612137   0.956979   0.000000
 Stoichiometry    H6O7SiZr
 Framework group  C1[X(H6O7SiZr)]
 Deg. of freedom    39
 Full point group                 C1      NOp   1
 Largest Abelian subgroup         C1      NOp   1
 Largest concise Abelian subgroup C1      NOp   1
                         Standard orientation:                         
 ---------------------------------------------------------------------
 Center     Atomic      Atomic             Coordinates (Angstroms)
 Number     Number       Type             X           Y           Z
 ---------------------------------------------------------------------
      1         40           0       -1.335388   -0.022038    0.025083
      2         14           0        2.112286   -0.061963    0.017001
      3          8           0        0.568870   -0.522142    0.264379
      4          8           0        2.065404    1.056852   -1.202888
      5          8           0        3.047354   -1.391547   -0.322870
      6          8           0        2.845138    0.673064    1.305538
      7          1           0        2.603991   -2.113237   -0.782160
      8          1           0        3.290229    0.082283    1.923401
      9          1           0        2.849623    1.607078   -1.306414
     10          8           0       -2.388652   -1.193759    1.152857
     11          1           0       -3.074317   -1.674898    1.615907
     12          8           0       -1.821147   -0.280492   -1.830385
     13          1           0       -2.035668   -0.188815   -2.758783
     14          8           0       -1.582757    1.819722    0.543940
     15          1           0       -1.664015    2.743016    0.782128
 ---------------------------------------------------------------------
 Rotational constants (GHZ):           1.6570691           0.4992979           0.4966528

 **********************************************************************

            Population analysis using the SCF Density.

 **********************************************************************

 Orbital symmetries:
       Occupied  (A) (A) (A) (A) (A) (A) (A) (A) (A) (A) (A) (A)
                 (A) (A) (A) (A) (A) (A) (A) (A) (A) (A) (A) (A)
                 (A) (A) (A) (A) (A) (A) (A) (A) (A) (A) (A) (A)
                 (A) (A) (A) (A) (A) (A) (A) (A)
       Virtual   (A) (A) (A) (A) (A) (A) (A) (A) (A) (A) (A) (A)
                 (A) (A) (A) (A) (A) (A) (A) (A) (A) (A) (A) (A)
                 (A) (A) (A) (A) (A) (A) (A) (A) (A) (A) (A) (A)
                 (A) (A) (A) (A) (A) (A) (A) (A) (A) (A) (A) (A)
                 (A) (A) (A) (A) (A) (A) (A) (A) (A) (A) (A) (A)
                 (A) (A) (A) (A) (A) (A) (A) (A) (A) (A) (A) (A)
                 (A) (A) (A) (A) (A) (A) (A) (A) (A) (A) (A) (A)
                 (A) (A) (A) (A) (A) (A) (A) (A) (A) (A) (A) (A)
                 (A) (A) (A) (A) (A) (A) (A) (A) (A) (A) (A) (A)
                 (A) (A) (A) (A) (A) (A) (A) (A) (A) (A) (A) (A)
                 (A) (A) (A) (A) (A) (A) (A) (A) (A) (A) (A) (A)
                 (A) (A) (A) (A) (A) (A) (A) (A) (A) (A) (A) (A)
                 (A) (A) (A) (A) (A) (A) (A) (A) (A) (A) (A) (A)
                 (A) (A) (A) (A) (A) (A) (A) (A) (A) (A) (A) (A)
                 (A) (A) (A) (A) (A) (A) (A) (A) (A) (A) (A) (A)
                 (A) (A) (A) (A) (A) (A) (A) (A) (A) (A) (A) (A)
                 (A) (A) (A) (A) (A) (A) (A) (A) (A) (A) (A) (A)
                 (A) (A) (A) (A) (A) (A) (A) (A) (A) (A) (A) (A)
                 (A) (A) (A) (A) (A) (A)
 The electronic state is 1-A.
 Alpha  occ. eigenvalues --  -66.19965 -19.15254 -19.15252 -19.15131 -19.14364
 Alpha  occ. eigenvalues --  -19.14211 -19.14091 -19.13208  -5.34079  -3.70043
 Alpha  occ. eigenvalues --   -3.70033  -3.70001  -2.11130  -1.27467  -1.27336
 Alpha  occ. eigenvalues --   -1.26979  -1.02887  -0.99742  -0.99510  -0.96558
 Alpha  occ. eigenvalues --   -0.95359  -0.95252  -0.94109  -0.57525  -0.52333
 Alpha  occ. eigenvalues --   -0.51750  -0.50296  -0.49539  -0.49510  -0.45355
 Alpha  occ. eigenvalues --   -0.39587  -0.37751  -0.37382  -0.35976  -0.35570
 Alpha  occ. eigenvalues --   -0.34774  -0.34302  -0.34001  -0.32928  -0.32607
 Alpha  occ. eigenvalues --   -0.32095  -0.31256  -0.31175  -0.30789
 Alpha virt. eigenvalues --   -0.02892  -0.01243  -0.00601  -0.00508   0.00287
 Alpha virt. eigenvalues --    0.00449   0.00833   0.01171   0.01842   0.02487
 Alpha virt. eigenvalues --    0.02638   0.02929   0.03176   0.03353   0.03432
 Alpha virt. eigenvalues --    0.04204   0.04575   0.04676   0.05473   0.05704
 Alpha virt. eigenvalues --    0.06874   0.09138   0.09604   0.09801   0.10020
 Alpha virt. eigenvalues --    0.10360   0.11661   0.12225   0.13118   0.13991
 Alpha virt. eigenvalues --    0.14386   0.15828   0.16362   0.16617   0.17400
 Alpha virt. eigenvalues --    0.18036   0.18286   0.18833   0.19394   0.19845
 Alpha virt. eigenvalues --    0.20195   0.21041   0.21338   0.22338   0.22561
 Alpha virt. eigenvalues --    0.24066   0.25298   0.25605   0.25999   0.26409
 Alpha virt. eigenvalues --    0.27206   0.27334   0.28350   0.28513   0.28882
 Alpha virt. eigenvalues --    0.29060   0.29653   0.29850   0.30162   0.31048
 Alpha virt. eigenvalues --    0.32073   0.32512   0.33037   0.34860   0.35445
 Alpha virt. eigenvalues --    0.36005   0.36473   0.37691   0.39401   0.40701
 Alpha virt. eigenvalues --    0.41471   0.43511   0.44979   0.45754   0.47082
 Alpha virt. eigenvalues --    0.48165   0.49529   0.49718   0.53362   0.54285
 Alpha virt. eigenvalues --    0.55252   0.56590   0.57188   0.60148   0.60704
 Alpha virt. eigenvalues --    0.61078   0.61505   0.62457   0.65726   0.66385
 Alpha virt. eigenvalues --    0.67301   0.69036   0.71510   0.72353   0.72942
 Alpha virt. eigenvalues --    0.74839   0.76025   0.77736   0.78696   0.81491
 Alpha virt. eigenvalues --    0.83615   0.86205   0.96275   0.97979   0.98225
 Alpha virt. eigenvalues --    1.02107   1.02606   1.03999   1.06898   1.07403
 Alpha virt. eigenvalues --    1.07731   1.18180   1.19522   1.20257   1.21084
 Alpha virt. eigenvalues --    1.21382   1.22996   1.23319   1.23980   1.26192
 Alpha virt. eigenvalues --    1.26715   1.27711   1.28308   1.29055   1.29393
 Alpha virt. eigenvalues --    1.29995   1.30712   1.31996   1.32329   1.33487
 Alpha virt. eigenvalues --    1.35546   1.37235   1.41348   1.43267   1.46122
 Alpha virt. eigenvalues --    1.47270   1.50643   1.54977   1.59584   1.60780
 Alpha virt. eigenvalues --    1.61434   1.63124   1.63355   1.65899   1.67838
 Alpha virt. eigenvalues --    1.69952   1.71217   1.71863   1.72657   1.73038
 Alpha virt. eigenvalues --    1.73977   1.75183   1.76474   1.77717   1.79185
 Alpha virt. eigenvalues --    1.79818   1.80529   1.82877   1.83131   1.84330
 Alpha virt. eigenvalues --    1.85798   1.86586   1.90845   1.91439   1.91863
 Alpha virt. eigenvalues --    1.92703   1.92877   1.95117   1.97194   1.97851
 Alpha virt. eigenvalues --    1.98630   2.00110   2.02435   2.03469   2.07118
 Alpha virt. eigenvalues --    2.08626   2.09500   2.11568   2.12595   2.17002
 Alpha virt. eigenvalues --    2.20451   2.20875   2.25772   2.27928   2.32678
 Alpha virt. eigenvalues --    2.40493   2.42021   2.42863   2.44465   2.45089
 Alpha virt. eigenvalues --    2.50410   2.57472   2.60679   2.62249   2.63295
 Alpha virt. eigenvalues --    2.64949   2.68266   2.68509   2.69916   2.72884
 Alpha virt. eigenvalues --    2.78567   2.80448   2.82870   2.83886   2.86971
 Alpha virt. eigenvalues --    2.89963   2.91460   2.92661   2.93797   2.94818
 Alpha virt. eigenvalues --    2.97821   3.13412   3.46696   3.48592   3.52304
 Alpha virt. eigenvalues --    3.57427   3.63137   3.69269   4.12075   4.13854
 Alpha virt. eigenvalues --    4.19220  30.78103
          Condensed to atoms (all electrons):
               1          2          3          4          5          6
     1  Zr  10.524569   0.090944  -0.009087  -0.007450  -0.087590  -0.025742
     2  Si   0.090944  12.946869  -0.627349  -0.123127  -0.157581   0.007740
     3  O   -0.009087  -0.627349   8.846365   0.107850   0.287225   0.086069
     4  O   -0.007450  -0.123127   0.107850   8.620826  -0.021118   0.044809
     5  O   -0.087590  -0.157581   0.287225  -0.021118   8.570120  -0.003523
     6  O   -0.025742   0.007740   0.086069   0.044809  -0.003523   8.541715
     7  H   -0.004833   0.028197   0.001573  -0.005870   0.238797   0.006697
     8  H    0.002688   0.056079  -0.021520   0.006109  -0.004367   0.234933
     9  H   -0.003663   0.035307   0.008690   0.225948  -0.004453  -0.003453
    10  O    0.019607  -0.004658  -0.017612   0.000421   0.001247   0.000195
    11  H   -0.086587   0.000093  -0.000991   0.000000   0.000003  -0.000001
    12  O    0.040118  -0.013508  -0.027703   0.001980   0.000785   0.000378
    13  H   -0.086003   0.000702  -0.000384   0.000077   0.000004   0.000001
    14  O    0.013399  -0.001339  -0.029751   0.000734   0.001048  -0.001363
    15  H   -0.089488   0.000591  -0.000199   0.000053   0.000003   0.000064
               7          8          9         10         11         12
     1  Zr  -0.004833   0.002688  -0.003663   0.019607  -0.086587   0.040118
     2  Si   0.028197   0.056079   0.035307  -0.004658   0.000093  -0.013508
     3  O    0.001573  -0.021520   0.008690  -0.017612  -0.000991  -0.027703
     4  O   -0.005870   0.006109   0.225948   0.000421   0.000000   0.001980
     5  O    0.238797  -0.004367  -0.004453   0.001247   0.000003   0.000785
     6  O    0.006697   0.234933  -0.003453   0.000195  -0.000001   0.000378
     7  H    0.369360   0.000056   0.000068   0.000000  -0.000000  -0.000014
     8  H    0.000056   0.358525   0.000040  -0.000015  -0.000000  -0.000007
     9  H    0.000068   0.000040   0.357980  -0.000003  -0.000000  -0.000044
    10  O    0.000000  -0.000015  -0.000003   8.604388   0.329792  -0.032243
    11  H   -0.000000  -0.000000  -0.000000   0.329792   0.380539  -0.000995
    12  O   -0.000014  -0.000007  -0.000044  -0.032243  -0.000995   8.583912
    13  H   -0.000000  -0.000000   0.000000  -0.000220  -0.000005   0.328417
    14  O    0.000003   0.000051   0.000056  -0.036576  -0.001273  -0.036492
    15  H   -0.000000  -0.000000  -0.000000  -0.000692  -0.000007  -0.001003
              13         14         15
     1  Zr  -0.086003   0.013399  -0.089488
     2  Si   0.000702  -0.001339   0.000591
     3  O   -0.000384  -0.029751  -0.000199
     4  O    0.000077   0.000734   0.000053
     5  O    0.000004   0.001048   0.000003
     6  O    0.000001  -0.001363   0.000064
     7  H   -0.000000   0.000003  -0.000000
     8  H   -0.000000   0.000051  -0.000000
     9  H    0.000000   0.000056  -0.000000
    10  O   -0.000220  -0.036576  -0.000692
    11  H   -0.000005  -0.001273  -0.000007
    12  O    0.328417  -0.036492  -0.001003
    13  H    0.379508  -0.001779  -0.000013
    14  O   -0.001779   8.618433   0.330919
    15  H   -0.000013   0.330919   0.379163
 Mulliken charges:
               1
     1  Zr   1.709119
     2  Si   1.761041
     3  O   -0.603176
     4  O   -0.851244
     5  O   -0.820601
     6  O   -0.888517
     7  H    0.365966
     8  H    0.367427
     9  H    0.383527
    10  O   -0.863630
    11  H    0.379432
    12  O   -0.843579
    13  H    0.379696
    14  O   -0.856070
    15  H    0.380608
 Sum of Mulliken charges =  -0.00000
 Mulliken charges with hydrogens summed into heavy atoms:
               1
     1  Zr   1.709119
     2  Si   1.761041
     3  O   -0.603176
     4  O   -0.467716
     5  O   -0.454635
     6  O   -0.521090
    10  O   -0.484198
    12  O   -0.463883
    14  O   -0.475461
 Electronic spatial extent (au):  <R**2>=           2164.7893
 Charge=             -0.0000 electrons
 Dipole moment (field-independent basis, Debye):
    X=             -1.4689    Y=             -0.1150    Z=             -0.3020  Tot=              1.5040
 Quadrupole moment (field-independent basis, Debye-Ang):
   XX=            -69.6729   YY=            -67.6057   ZZ=            -68.1133
   XY=              0.4601   XZ=             -0.2156   YZ=             -0.8892
 Traceless Quadrupole moment (field-independent basis, Debye-Ang):
   XX=             -1.2090   YY=              0.8583   ZZ=              0.3506
   XY=              0.4601   XZ=             -0.2156   YZ=             -0.8892
 Octapole moment (field-independent basis, Debye-Ang**2):
  XXX=            -57.0800  YYY=             11.0285  ZZZ=             -8.8990  XYY=            -19.3268
  XXY=              3.5595  XXZ=              9.4480  XZZ=            -18.0480  YZZ=             -7.0314
  YYZ=             -0.5545  XYZ=             -2.1238
 Hexadecapole moment (field-independent basis, Debye-Ang**3):
 XXXX=          -1827.9229 YYYY=           -320.1607 ZZZZ=           -329.9427 XXXY=            103.0981
 XXXZ=            -14.1996 YYYX=            -30.5146 YYYZ=             20.4271 ZZZX=             63.5987
 ZZZY=             -9.4056 XXYY=           -340.5476 XXZZ=           -290.4023 YYZZ=           -129.1241
 XXYZ=            -57.6912 YYXZ=            -59.2888 ZZXY=              1.9309
 N-N= 6.380251518348D+02 E-N=-3.313601127586D+03  KE= 8.306827260563D+02
 1\1\GINC-GRA600\FOpt\RB3LYP\Gen\H6O7Si1Zr1\SARASHS\16-Jul-2020\0\\#n B
 3LYP/Gen Pseudo=cards EmpiricalDispersion=GD3 Opt=modredundant\\Title\
 \0,1\Zr,1.3845769599,-0.0051508278,-0.1065448005\Si,-2.0302687235,0.45
 63775098,0.0115153347\O,-0.5804305225,-0.2540965109,-0.2082303388\O,-1
 .7656182954,1.7252833896,1.0420068544\O,-3.1216558447,-0.6583379307,0.
 5806744473\O,-2.7200226603,1.0901312888,-1.3523983238\H,-2.7593570602,
 -1.3603081052,1.1323366924\H,-3.2741155353,0.4848866354,-1.8579095333\
 H,-2.45959707,2.3925064016,1.0829036679\O,2.205410764,-1.4714792574,-1
 .071056109\H,2.7928505528,-2.1102552616,-1.4746975541\O,1.9253906651,-
 0.0526880566,1.7510835939\H,2.1983953792,0.143846449,2.6472919635\O,1.
 85752147,1.6836142137,-0.91083218\H,2.0534699208,2.5396600625,-1.29109
 37146\\Version=ES64L-G16RevB.01\State=1-A\HF=-867.1275452\RMSD=2.130e-
 09\RMSF=2.618e-04\Dipole=0.5714285,-0.1103101,0.1069054\Quadrupole=-0.
 9669016,0.8935546,0.073347,-0.0820152,0.0090224,0.5874687\PG=C01 [X(H6
 O7Si1Zr1)]\\@


 The most important thing in communication is to hear what isn't being said.
 -- Peter F. Drucker
 Job cpu time:       0 days  4 hours 47 minutes 19.9 seconds.
 Elapsed time:       0 days  0 hours 20 minutes 34.7 seconds.
 File lengths (MBytes):  RWF=     48 Int=      0 D2E=      0 Chk=      6 Scr=      1
 Normal termination of Gaussian 16 at Thu Jul 16 15:32:17 2020.
