 Entering Gaussian System, Link 0=g16
 Initial command:
 /opt/software/gaussian/g16.b01/l1.exe "/localscratch/sarashs.35132325.0/Gau-9165.inp" -scrdir="/localscratch/sarashs.35132325.0/"
 Entering Link 1 = /opt/software/gaussian/g16.b01/l1.exe PID=      9168.
  
 Copyright (c) 1988-2017, Gaussian, Inc.  All Rights Reserved.
  
 This is part of the Gaussian(R) 16 program.  It is based on
 the Gaussian(R) 09 system (copyright 2009, Gaussian, Inc.),
 the Gaussian(R) 03 system (copyright 2003, Gaussian, Inc.),
 the Gaussian(R) 98 system (copyright 1998, Gaussian, Inc.),
 the Gaussian(R) 94 system (copyright 1995, Gaussian, Inc.),
 the Gaussian 92(TM) system (copyright 1992, Gaussian, Inc.),
 the Gaussian 90(TM) system (copyright 1990, Gaussian, Inc.),
 the Gaussian 88(TM) system (copyright 1988, Gaussian, Inc.),
 the Gaussian 86(TM) system (copyright 1986, Carnegie Mellon
 University), and the Gaussian 82(TM) system (copyright 1983,
 Carnegie Mellon University). Gaussian is a federally registered
 trademark of Gaussian, Inc.
  
 This software contains proprietary and confidential information,
 including trade secrets, belonging to Gaussian, Inc.
  
 This software is provided under written license and may be
 used, copied, transmitted, or stored only in accord with that
 written license.
  
 The following legend is applicable only to US Government
 contracts under FAR:
  
                    RESTRICTED RIGHTS LEGEND
  
 Use, reproduction and disclosure by the US Government is
 subject to restrictions as set forth in subparagraphs (a)
 and (c) of the Commercial Computer Software - Restricted
 Rights clause in FAR 52.227-19.
  
 Gaussian, Inc.
 340 Quinnipiac St., Bldg. 40, Wallingford CT 06492
  
  
 ---------------------------------------------------------------
 Warning -- This program may not be used in any manner that
 competes with the business of Gaussian, Inc. or will provide
 assistance to any competitor of Gaussian, Inc.  The licensee
 of this program is prohibited from giving any competitor of
 Gaussian, Inc. access to this program.  By using this program,
 the user acknowledges that Gaussian, Inc. is engaged in the
 business of creating and licensing software in the field of
 computational chemistry and represents and warrants to the
 licensee that it is not a competitor of Gaussian, Inc. and that
 it will not use this program in any manner prohibited above.
 ---------------------------------------------------------------
  

 Cite this work as:
 Gaussian 16, Revision B.01,
 M. J. Frisch, G. W. Trucks, H. B. Schlegel, G. E. Scuseria, 
 M. A. Robb, J. R. Cheeseman, G. Scalmani, V. Barone, 
 G. A. Petersson, H. Nakatsuji, X. Li, M. Caricato, A. V. Marenich, 
 J. Bloino, B. G. Janesko, R. Gomperts, B. Mennucci, H. P. Hratchian, 
 J. V. Ortiz, A. F. Izmaylov, J. L. Sonnenberg, D. Williams-Young, 
 F. Ding, F. Lipparini, F. Egidi, J. Goings, B. Peng, A. Petrone, 
 T. Henderson, D. Ranasinghe, V. G. Zakrzewski, J. Gao, N. Rega, 
 G. Zheng, W. Liang, M. Hada, M. Ehara, K. Toyota, R. Fukuda, 
 J. Hasegawa, M. Ishida, T. Nakajima, Y. Honda, O. Kitao, H. Nakai, 
 T. Vreven, K. Throssell, J. A. Montgomery, Jr., J. E. Peralta, 
 F. Ogliaro, M. J. Bearpark, J. J. Heyd, E. N. Brothers, K. N. Kudin, 
 V. N. Staroverov, T. A. Keith, R. Kobayashi, J. Normand, 
 K. Raghavachari, A. P. Rendell, J. C. Burant, S. S. Iyengar, 
 J. Tomasi, M. Cossi, J. M. Millam, M. Klene, C. Adamo, R. Cammi, 
 J. W. Ochterski, R. L. Martin, K. Morokuma, O. Farkas, 
 J. B. Foresman, and D. J. Fox, Gaussian, Inc., Wallingford CT, 2016.
 
 ******************************************
 Gaussian 16:  ES64L-G16RevB.01 20-Dec-2017
                15-Jul-2020 
 ******************************************
 %NProcShared=16
 Will use up to   16 processors via shared memory.
 ------------------------------------------------------------------
 #n B3LYP/Gen Pseudo=cards EmpiricalDispersion=GD3 Opt=modredundant
 ------------------------------------------------------------------
 1/18=120,19=15,26=3,38=1/1,3;
 2/9=110,12=2,17=6,18=5,40=1/2;
 3/5=7,11=2,16=1,17=8,25=1,30=1,71=1,74=-5,124=31/1,2,3;
 4//1;
 5/5=2,38=5/2;
 6/7=2,8=2,9=2,10=2,28=1/1;
 7//1,2,3,16;
 1/18=20,19=15,26=3/3(2);
 2/9=110/2;
 99//99;
 2/9=110/2;
 3/5=7,6=1,11=2,16=1,17=8,25=1,30=1,71=1,74=-5,82=7,124=31/1,2,3;
 4/5=5,16=3,69=1/1;
 5/5=2,38=5/2;
 7//1,2,3,16;
 1/18=20,19=15,26=3/3(-5);
 2/9=110/2;
 6/7=2,8=2,9=2,10=2,19=2,28=1/1;
 99/9=1/99;
 -----
 Title
 -----
 Symbolic Z-matrix:
 Charge =  0 Multiplicity = 1
 Zr                    1.37839  -0.01367  -0.01029 
 Si                   -2.18676  -0.05536   0.01571 
 O                    -0.57498  -0.28442   0.01654 
 O                    -2.44966   1.40966   0.7351 
 O                    -2.93663  -1.32343   0.78468 
 O                    -2.87894   0.00954  -1.48576 
 H                    -2.46578  -1.70321   1.53463 
 H                    -3.15616  -0.83777  -1.852 
 H                    -3.33098   1.78286   0.62307 
 O                     2.15239  -1.31312  -1.2196 
 H                     2.65751  -1.85105  -1.82887 
 O                     2.04402  -0.29207   1.78758 
 H                     2.51011  -0.3161    2.62313 
 O                     1.78195   1.7752   -0.6111 
 H                     1.91399   2.68442  -0.87911 
 
 The following ModRedundant input section has been read:
 A       1       2       3 F                                                   
 

 GradGradGradGradGradGradGradGradGradGradGradGradGradGradGradGradGradGrad
 Berny optimization.
 Initialization pass.
                           ----------------------------
                           !    Initial Parameters    !
                           ! (Angstroms and Degrees)  !
 --------------------------                            --------------------------
 ! Name  Definition              Value          Derivative Info.                !
 --------------------------------------------------------------------------------
 ! R1    R(1,3)                  1.9722         estimate D2E/DX2                !
 ! R2    R(1,10)                 1.9365         estimate D2E/DX2                !
 ! R3    R(1,12)                 1.9372         estimate D2E/DX2                !
 ! R4    R(1,14)                 1.9297         estimate D2E/DX2                !
 ! R5    R(2,3)                  1.628          estimate D2E/DX2                !
 ! R6    R(2,4)                  1.6532         estimate D2E/DX2                !
 ! R7    R(2,5)                  1.6618         estimate D2E/DX2                !
 ! R8    R(2,6)                  1.6546         estimate D2E/DX2                !
 ! R9    R(4,9)                  0.9636         estimate D2E/DX2                !
 ! R10   R(5,7)                  0.9635         estimate D2E/DX2                !
 ! R11   R(6,8)                  0.9638         estimate D2E/DX2                !
 ! R12   R(10,11)                0.9569         estimate D2E/DX2                !
 ! R13   R(12,13)                0.9571         estimate D2E/DX2                !
 ! R14   R(14,15)                0.9571         estimate D2E/DX2                !
 ! A1    A(3,1,10)             108.1944         estimate D2E/DX2                !
 ! A2    A(3,1,12)             107.9362         estimate D2E/DX2                !
 ! A3    A(3,1,14)             109.793          estimate D2E/DX2                !
 ! A4    A(10,1,12)            110.2299         estimate D2E/DX2                !
 ! A5    A(10,1,14)            110.1226         estimate D2E/DX2                !
 ! A6    A(12,1,14)            110.5061         estimate D2E/DX2                !
 ! A7    A(1,2,3)                8.7698         Frozen                          !
 ! A8    A(3,2,4)              106.3745         estimate D2E/DX2                !
 ! A9    A(3,2,5)              109.8249         estimate D2E/DX2                !
 ! A10   A(3,2,6)              114.8443         estimate D2E/DX2                !
 ! A11   A(4,2,5)              113.7723         estimate D2E/DX2                !
 ! A12   A(4,2,6)              107.0735         estimate D2E/DX2                !
 ! A13   A(5,2,6)              105.1333         estimate D2E/DX2                !
 ! A14   A(1,3,2)              164.0002         estimate D2E/DX2                !
 ! A15   A(2,4,9)              115.9809         estimate D2E/DX2                !
 ! A16   A(2,5,7)              116.1311         estimate D2E/DX2                !
 ! A17   A(2,6,8)              115.5099         estimate D2E/DX2                !
 ! A18   L(1,10,11,8,-1)       187.3858         estimate D2E/DX2                !
 ! A19   L(1,12,13,7,-1)       190.6942         estimate D2E/DX2                !
 ! A20   L(1,14,15,4,-1)       175.4349         estimate D2E/DX2                !
 ! A21   L(1,10,11,8,-2)       173.036          estimate D2E/DX2                !
 ! A22   L(1,12,13,7,-2)       183.4322         estimate D2E/DX2                !
 ! A23   L(1,14,15,4,-2)       179.0802         estimate D2E/DX2                !
 ! D1    D(10,1,3,2)          -136.4112         estimate D2E/DX2                !
 ! D2    D(12,1,3,2)           104.3161         estimate D2E/DX2                !
 ! D3    D(14,1,3,2)           -16.202          estimate D2E/DX2                !
 ! D4    D(4,2,3,1)            -29.9128         estimate D2E/DX2                !
 ! D5    D(5,2,3,1)           -153.4546         estimate D2E/DX2                !
 ! D6    D(6,2,3,1)             88.3336         estimate D2E/DX2                !
 ! D7    D(3,2,4,9)            165.916          estimate D2E/DX2                !
 ! D8    D(5,2,4,9)            -73.041          estimate D2E/DX2                !
 ! D9    D(6,2,4,9)             42.662          estimate D2E/DX2                !
 ! D10   D(3,2,5,7)             35.3293         estimate D2E/DX2                !
 ! D11   D(4,2,5,7)            -83.7655         estimate D2E/DX2                !
 ! D12   D(6,2,5,7)            159.3966         estimate D2E/DX2                !
 ! D13   D(3,2,6,8)             88.6231         estimate D2E/DX2                !
 ! D14   D(4,2,6,8)           -153.5246         estimate D2E/DX2                !
 ! D15   D(5,2,6,8)            -32.1991         estimate D2E/DX2                !
 --------------------------------------------------------------------------------
 Trust Radius=3.00D-01 FncErr=1.00D-07 GrdErr=1.00D-06 EigMax=2.50D+02 EigMin=1.00D-04
 Number of steps in this run=     62 maximum allowed number of steps=    100.
 GradGradGradGradGradGradGradGradGradGradGradGradGradGradGradGradGradGrad

                          Input orientation:                          
 ---------------------------------------------------------------------
 Center     Atomic      Atomic             Coordinates (Angstroms)
 Number     Number       Type             X           Y           Z
 ---------------------------------------------------------------------
      1         40           0        1.378390   -0.013670   -0.010290
      2         14           0       -2.186760   -0.055360    0.015710
      3          8           0       -0.574980   -0.284420    0.016540
      4          8           0       -2.449660    1.409660    0.735100
      5          8           0       -2.936630   -1.323430    0.784680
      6          8           0       -2.878940    0.009540   -1.485760
      7          1           0       -2.465780   -1.703210    1.534630
      8          1           0       -3.156160   -0.837770   -1.852000
      9          1           0       -3.330980    1.782860    0.623070
     10          8           0        2.152390   -1.313120   -1.219600
     11          1           0        2.657510   -1.851050   -1.828870
     12          8           0        2.044020   -0.292070    1.787580
     13          1           0        2.510110   -0.316100    2.623130
     14          8           0        1.781950    1.775200   -0.611100
     15          1           0        1.913990    2.684420   -0.879110
 ---------------------------------------------------------------------
                    Distance matrix (angstroms):
                    1          2          3          4          5
     1  Zr   0.000000
     2  Si   3.565489   0.000000
     3  O    1.972227   1.627975   0.000000
     4  O    4.151559   1.653155   2.626911   0.000000
     5  O    4.578957   1.661813   2.692020   2.776577   0.000000
     6  O    4.505819   1.654611   2.766143   2.660232   2.633445
     7  H    4.474256   2.258402   2.809393   3.213949   0.963513
     8  H    4.963182   2.245048   3.234212   3.499024   2.690008
     9  H    5.080042   2.248817   3.498151   0.963615   3.135389
    10  O    1.936512   4.683607   3.166198   5.693263   5.469494
    11  H    2.884328   5.485793   4.038423   6.579465   6.197050
    12  O    1.937242   4.592935   3.161614   4.919020   5.184244
    13  H    2.882214   5.378402   4.038947   5.580522   5.836231
    14  O    1.929738   4.415258   3.192348   4.455603   5.815041
    15  H    2.884685   5.012310   3.976326   4.824119   6.508423
                    6          7          8          9         10
     6  O    0.000000
     7  H    3.496708   0.000000
     8  H    0.963803   3.562987   0.000000
     9  H    2.792162   3.705698   3.608911   0.000000
    10  O    5.209084   5.391238   5.367177   6.561088   0.000000
    11  H    5.850795   6.130505   5.901358   7.421545   0.956935
    12  O    5.919566   4.732187   6.370730   5.878099   3.177644
    13  H    6.784606   5.279052   7.239167   6.521059   3.986049
    14  O    5.060285   5.894633   5.722969   5.259780   3.169419
    15  H    5.522245   6.652806   6.249701   5.529834   4.019091
                   11         12         13         14         15
    11  H    0.000000
    12  O    3.985662   0.000000
    13  H    4.711486   0.957059   0.000000
    14  O    3.924189   3.177413   3.919693   0.000000
    15  H    4.693118   3.998454   4.650179   0.957050   0.000000
 Stoichiometry    H6O7SiZr
 Framework group  C1[X(H6O7SiZr)]
 Deg. of freedom    39
 Full point group                 C1      NOp   1
 Largest Abelian subgroup         C1      NOp   1
 Largest concise Abelian subgroup C1      NOp   1
                         Standard orientation:                         
 ---------------------------------------------------------------------
 Center     Atomic      Atomic             Coordinates (Angstroms)
 Number     Number       Type             X           Y           Z
 ---------------------------------------------------------------------
      1         40           0        1.380453   -0.012559   -0.010226
      2         14           0       -2.184947   -0.019029    0.013987
      3          8           0       -0.575494   -0.263875    0.017880
      4          8           0       -2.433826    1.454988    0.719861
      5          8           0       -2.947628   -1.272628    0.794006
      6          8           0       -2.875679    0.038990   -1.488431
      7          1           0       -2.480917   -1.650167    1.547665
      8          1           0       -3.161014   -0.808858   -1.847116
      9          1           0       -3.311382    1.835782    0.603905
     10          8           0        2.142286   -1.330494   -1.207195
     11          1           0        2.642416   -1.878878   -1.811239
     12          8           0        2.042387   -0.281099    1.790506
     13          1           0        2.507786   -0.302095    2.626523
     14          8           0        1.801865    1.766723   -0.627039
     15          1           0        1.942963    2.672126   -0.903229
 ---------------------------------------------------------------------
 Rotational constants (GHZ):           1.6298160           0.4751130           0.4724077
 General basis read from cards:  (5D, 7F)
 ======================================================================================================
                                       Pseudopotential Parameters
 ======================================================================================================
  Center     Atomic      Valence      Angular      Power
  Number     Number     Electrons     Momentum     of R      Exponent        Coefficient   SO-Coeffient
 ======================================================================================================
    1         40           12
                                      G and up 
                                                     2        1.0000000        0.00000000    0.00000000
                                      S - G
                                                     2        8.6365280      150.24299400    0.00000000
                                                     2        3.7176390       18.78003600    0.00000000
                                      P - G
                                                     2        7.6267280       33.19279100    0.00000000
                                                     2        7.4532070       66.38903900    0.00000000
                                                     2        3.3583890        4.62072600    0.00000000
                                                     2        3.2297380        9.26027000    0.00000000
                                      D - G
                                                     2        5.9380860       13.99338300    0.00000000
                                                     2        5.8255440       20.99588200    0.00000000
                                                     2        2.2050190        2.28516600    0.00000000
                                                     2        2.2062920        3.44126000    0.00000000
                                      F - G
                                                     2        4.8002150       -5.23932000    0.00000000
                                                     2        4.7989920       -6.98742400    0.00000000
    2         14
                                   No pseudopotential on this center.
    3          8
                                   No pseudopotential on this center.
    4          8
                                   No pseudopotential on this center.
    5          8
                                   No pseudopotential on this center.
    6          8
                                   No pseudopotential on this center.
    7          1
                                   No pseudopotential on this center.
    8          1
                                   No pseudopotential on this center.
    9          1
                                   No pseudopotential on this center.
   10          8
                                   No pseudopotential on this center.
   11          1
                                   No pseudopotential on this center.
   12          8
                                   No pseudopotential on this center.
   13          1
                                   No pseudopotential on this center.
   14          8
                                   No pseudopotential on this center.
   15          1
                                   No pseudopotential on this center.
 ======================================================================================================
 There are   300 symmetry adapted cartesian basis functions of A   symmetry.
 There are   266 symmetry adapted basis functions of A   symmetry.
   266 basis functions,   576 primitive gaussians,   300 cartesian basis functions
    44 alpha electrons       44 beta electrons
       nuclear repulsion energy       631.8262839177 Hartrees.
 NAtoms=   15 NActive=   15 NUniq=   15 SFac= 1.00D+00 NAtFMM=   60 NAOKFM=F Big=F
 Integral buffers will be    131072 words long.
 Raffenetti 2 integral format.
 Two-electron integral symmetry is turned on.
 Nuclear repulsion after empirical dispersion term =      631.8160717837 Hartrees.
 One-electron integrals computed using PRISM.
 PrsmSu:  requested number of processors reduced to:   4 ShMem   1 Linda.
   1 Symmetry operations used in ECPInt.
 ECPInt:  NShTT=    3321 NPrTT=   20810 LenC2=    3171 LenP2D=   14982.
 LDataN:  DoStor=T MaxTD1= 8 Len=  415
 NBasis=   266 RedAO= T EigKep=  1.02D-04  NBF=   266
 NBsUse=   266 1.00D-06 EigRej= -1.00D+00 NBFU=   266
 Defaulting to unpruned grid for atomic number  40.
 ExpMin= 1.01D-02 ExpMax= 1.61D+04 ExpMxC= 2.43D+03 IAcc=3 IRadAn=         5 AccDes= 0.00D+00
 Harris functional with IExCor=  402 and IRadAn=       5 diagonalized for initial guess.
 HarFok:  IExCor=  402 AccDes= 0.00D+00 IRadAn=         5 IDoV= 1 UseB2=F ITyADJ=14
 ICtDFT=  3500011 ScaDFX=  1.000000  1.000000  1.000000  1.000000
 Defaulting to unpruned grid for atomic number  40.
 FoFCou: FMM=F IPFlag=           0 FMFlag=      100000 FMFlg1=           0
         NFxFlg=           0 DoJE=T BraDBF=F KetDBF=T FulRan=T
         wScrn=  0.000000 ICntrl=       500 IOpCl=  0 I1Cent=   200000004 NGrid=           0
         NMat0=    1 NMatS0=      1 NMatT0=    0 NMatD0=    1 NMtDS0=    0 NMtDT0=    0
 Petite list used in FoFCou.
 Requested convergence on RMS density matrix=1.00D-08 within 128 cycles.
 Requested convergence on MAX density matrix=1.00D-06.
 Requested convergence on             energy=1.00D-06.
 No special actions if energy rises.
 Defaulting to unpruned grid for atomic number  40.
 Defaulting to unpruned grid for atomic number  40.
 Defaulting to unpruned grid for atomic number  40.
 Defaulting to unpruned grid for atomic number  40.
 Defaulting to unpruned grid for atomic number  40.
 Defaulting to unpruned grid for atomic number  40.
 Defaulting to unpruned grid for atomic number  40.
 Defaulting to unpruned grid for atomic number  40.
 Defaulting to unpruned grid for atomic number  40.
 Defaulting to unpruned grid for atomic number  40.
 Defaulting to unpruned grid for atomic number  40.
 Defaulting to unpruned grid for atomic number  40.
 Defaulting to unpruned grid for atomic number  40.
 Defaulting to unpruned grid for atomic number  40.
 Defaulting to unpruned grid for atomic number  40.
 Defaulting to unpruned grid for atomic number  40.
 SCF Done:  E(RB3LYP) =  -867.127848343     A.U. after   12 cycles
            NFock= 12  Conv=0.10D-07     -V/T= 2.0439

 **********************************************************************

            Population analysis using the SCF Density.

 **********************************************************************

 Orbital symmetries:
       Occupied  (A) (A) (A) (A) (A) (A) (A) (A) (A) (A) (A) (A)
                 (A) (A) (A) (A) (A) (A) (A) (A) (A) (A) (A) (A)
                 (A) (A) (A) (A) (A) (A) (A) (A) (A) (A) (A) (A)
                 (A) (A) (A) (A) (A) (A) (A) (A)
       Virtual   (A) (A) (A) (A) (A) (A) (A) (A) (A) (A) (A) (A)
                 (A) (A) (A) (A) (A) (A) (A) (A) (A) (A) (A) (A)
                 (A) (A) (A) (A) (A) (A) (A) (A) (A) (A) (A) (A)
                 (A) (A) (A) (A) (A) (A) (A) (A) (A) (A) (A) (A)
                 (A) (A) (A) (A) (A) (A) (A) (A) (A) (A) (A) (A)
                 (A) (A) (A) (A) (A) (A) (A) (A) (A) (A) (A) (A)
                 (A) (A) (A) (A) (A) (A) (A) (A) (A) (A) (A) (A)
                 (A) (A) (A) (A) (A) (A) (A) (A) (A) (A) (A) (A)
                 (A) (A) (A) (A) (A) (A) (A) (A) (A) (A) (A) (A)
                 (A) (A) (A) (A) (A) (A) (A) (A) (A) (A) (A) (A)
                 (A) (A) (A) (A) (A) (A) (A) (A) (A) (A) (A) (A)
                 (A) (A) (A) (A) (A) (A) (A) (A) (A) (A) (A) (A)
                 (A) (A) (A) (A) (A) (A) (A) (A) (A) (A) (A) (A)
                 (A) (A) (A) (A) (A) (A) (A) (A) (A) (A) (A) (A)
                 (A) (A) (A) (A) (A) (A) (A) (A) (A) (A) (A) (A)
                 (A) (A) (A) (A) (A) (A) (A) (A) (A) (A) (A) (A)
                 (A) (A) (A) (A) (A) (A) (A) (A) (A) (A) (A) (A)
                 (A) (A) (A) (A) (A) (A) (A) (A) (A) (A) (A) (A)
                 (A) (A) (A) (A) (A) (A)
 The electronic state is 1-A.
 Alpha  occ. eigenvalues --  -66.19950 -19.15199 -19.15150 -19.14914 -19.14401
 Alpha  occ. eigenvalues --  -19.14305 -19.14227 -19.13209  -5.34046  -3.70012
 Alpha  occ. eigenvalues --   -3.70005  -3.69967  -2.11233  -1.27539  -1.27436
 Alpha  occ. eigenvalues --   -1.27125  -1.02787  -0.99603  -0.99418  -0.96639
 Alpha  occ. eigenvalues --   -0.95436  -0.95375  -0.94114  -0.57464  -0.52271
 Alpha  occ. eigenvalues --   -0.51579  -0.50367  -0.49684  -0.49634  -0.45662
 Alpha  occ. eigenvalues --   -0.39585  -0.37778  -0.37261  -0.36059  -0.35637
 Alpha  occ. eigenvalues --   -0.34676  -0.34231  -0.33910  -0.32945  -0.32783
 Alpha  occ. eigenvalues --   -0.32055  -0.31301  -0.31210  -0.30672
 Alpha virt. eigenvalues --   -0.02928  -0.01298  -0.00727  -0.00563   0.00280
 Alpha virt. eigenvalues --    0.00372   0.01042   0.01252   0.01743   0.02339
 Alpha virt. eigenvalues --    0.02418   0.02956   0.03180   0.03287   0.03351
 Alpha virt. eigenvalues --    0.04259   0.04518   0.04613   0.05300   0.05763
 Alpha virt. eigenvalues --    0.06783   0.09107   0.09558   0.09824   0.10067
 Alpha virt. eigenvalues --    0.10154   0.11261   0.12484   0.13411   0.13777
 Alpha virt. eigenvalues --    0.14741   0.15445   0.15977   0.16316   0.17974
 Alpha virt. eigenvalues --    0.18313   0.18351   0.19005   0.19513   0.19914
 Alpha virt. eigenvalues --    0.20151   0.20341   0.21327   0.21691   0.22437
 Alpha virt. eigenvalues --    0.23258   0.24273   0.25083   0.26178   0.26485
 Alpha virt. eigenvalues --    0.27048   0.27416   0.27850   0.28410   0.28571
 Alpha virt. eigenvalues --    0.29177   0.29489   0.29590   0.29849   0.30679
 Alpha virt. eigenvalues --    0.31242   0.32891   0.34213   0.34614   0.35452
 Alpha virt. eigenvalues --    0.35663   0.36281   0.36901   0.37802   0.39048
 Alpha virt. eigenvalues --    0.41664   0.44060   0.44374   0.46583   0.47658
 Alpha virt. eigenvalues --    0.48239   0.49441   0.50664   0.51673   0.52656
 Alpha virt. eigenvalues --    0.55064   0.57236   0.58230   0.60160   0.60654
 Alpha virt. eigenvalues --    0.61521   0.62379   0.62837   0.64556   0.65227
 Alpha virt. eigenvalues --    0.66342   0.68109   0.69143   0.72509   0.73847
 Alpha virt. eigenvalues --    0.74544   0.76097   0.77324   0.78741   0.81422
 Alpha virt. eigenvalues --    0.85715   0.86118   0.96121   0.97770   0.98852
 Alpha virt. eigenvalues --    1.01726   1.02506   1.04615   1.05634   1.06534
 Alpha virt. eigenvalues --    1.07744   1.18626   1.19935   1.20557   1.21437
 Alpha virt. eigenvalues --    1.21554   1.22737   1.23436   1.23887   1.24359
 Alpha virt. eigenvalues --    1.25544   1.26389   1.28034   1.28653   1.28749
 Alpha virt. eigenvalues --    1.29072   1.30229   1.31226   1.31506   1.32974
 Alpha virt. eigenvalues --    1.33236   1.36705   1.42791   1.43527   1.45695
 Alpha virt. eigenvalues --    1.48847   1.52947   1.57415   1.59728   1.61094
 Alpha virt. eigenvalues --    1.62749   1.63125   1.63670   1.64426   1.67753
 Alpha virt. eigenvalues --    1.69440   1.71470   1.72333   1.72780   1.73065
 Alpha virt. eigenvalues --    1.73817   1.74042   1.74956   1.76621   1.77326
 Alpha virt. eigenvalues --    1.79295   1.80533   1.83091   1.83555   1.84522
 Alpha virt. eigenvalues --    1.86164   1.87854   1.90964   1.91258   1.92551
 Alpha virt. eigenvalues --    1.93093   1.94257   1.95044   1.95833   1.97127
 Alpha virt. eigenvalues --    1.99033   1.99456   2.00203   2.01776   2.06986
 Alpha virt. eigenvalues --    2.07470   2.08517   2.10080   2.14458   2.17558
 Alpha virt. eigenvalues --    2.20098   2.20259   2.21489   2.26502   2.31901
 Alpha virt. eigenvalues --    2.37765   2.41932   2.42384   2.43377   2.45148
 Alpha virt. eigenvalues --    2.50850   2.58506   2.59650   2.62530   2.63436
 Alpha virt. eigenvalues --    2.64803   2.66938   2.68334   2.68672   2.73072
 Alpha virt. eigenvalues --    2.78624   2.80415   2.80938   2.83762   2.87697
 Alpha virt. eigenvalues --    2.90323   2.91210   2.91456   2.92661   2.93952
 Alpha virt. eigenvalues --    3.01627   3.16591   3.46849   3.48377   3.51249
 Alpha virt. eigenvalues --    3.54560   3.57836   3.85907   4.13351   4.14765
 Alpha virt. eigenvalues --    4.18557  31.03055
          Condensed to atoms (all electrons):
               1          2          3          4          5          6
     1  Zr  10.438155   0.142061  -0.031984   0.003866  -0.077327  -0.042291
     2  Si   0.142061  12.921693  -0.696971  -0.069483  -0.135319   0.009130
     3  O   -0.031984  -0.696971   8.959161   0.111149   0.282681   0.100704
     4  O    0.003866  -0.069483   0.111149   8.564842  -0.030026   0.026987
     5  O   -0.077327  -0.135319   0.282681  -0.030026   8.531244   0.024359
     6  O   -0.042291   0.009130   0.100704   0.026987   0.024359   8.521958
     7  H   -0.003465   0.028332  -0.002001  -0.006469   0.242439   0.006525
     8  H    0.001396   0.060788  -0.021553   0.006574  -0.005589   0.232888
     9  H   -0.004563   0.036389   0.010358   0.224029  -0.005656  -0.005641
    10  O    0.032232  -0.012846  -0.025560   0.000617   0.001001   0.000967
    11  H   -0.087293   0.000737  -0.001115   0.000002   0.000002   0.000006
    12  O    0.036648  -0.013035  -0.026731   0.000096   0.001733   0.000252
    13  H   -0.086493   0.000770  -0.000854   0.000001   0.000003   0.000001
    14  O    0.025880  -0.019141  -0.025802   0.002461   0.001002  -0.000630
    15  H   -0.090427   0.001033  -0.000595   0.000075   0.000003   0.000010
               7          8          9         10         11         12
     1  Zr  -0.003465   0.001396  -0.004563   0.032232  -0.087293   0.036648
     2  Si   0.028332   0.060788   0.036389  -0.012846   0.000737  -0.013035
     3  O   -0.002001  -0.021553   0.010358  -0.025560  -0.001115  -0.026731
     4  O   -0.006469   0.006574   0.224029   0.000617   0.000002   0.000096
     5  O    0.242439  -0.005589  -0.005656   0.001001   0.000002   0.001733
     6  O    0.006525   0.232888  -0.005641   0.000967   0.000006   0.000252
     7  H    0.370626   0.000056   0.000092   0.000017   0.000000  -0.000063
     8  H    0.000056   0.358693   0.000059  -0.000011   0.000000  -0.000007
     9  H    0.000092   0.000059   0.369609  -0.000001  -0.000000  -0.000013
    10  O    0.000017  -0.000011  -0.000001   8.606143   0.327036  -0.032172
    11  H    0.000000   0.000000  -0.000000   0.327036   0.382331  -0.000804
    12  O   -0.000063  -0.000007  -0.000013  -0.032172  -0.000804   8.601542
    13  H   -0.000000  -0.000000  -0.000000  -0.000754  -0.000008   0.325730
    14  O   -0.000006   0.000009  -0.000064  -0.034653  -0.001330  -0.037060
    15  H    0.000000  -0.000000  -0.000000  -0.000684  -0.000008  -0.000949
              13         14         15
     1  Zr  -0.086493   0.025880  -0.090427
     2  Si   0.000770  -0.019141   0.001033
     3  O   -0.000854  -0.025802  -0.000595
     4  O    0.000001   0.002461   0.000075
     5  O    0.000003   0.001002   0.000003
     6  O    0.000001  -0.000630   0.000010
     7  H   -0.000000  -0.000006   0.000000
     8  H   -0.000000   0.000009  -0.000000
     9  H   -0.000000  -0.000064  -0.000000
    10  O   -0.000754  -0.034653  -0.000684
    11  H   -0.000008  -0.001330  -0.000008
    12  O    0.325730  -0.037060  -0.000949
    13  H    0.382232  -0.001482  -0.000011
    14  O   -0.001482   8.608870   0.331689
    15  H   -0.000011   0.331689   0.379039
 Mulliken charges:
               1
     1  Zr   1.743606
     2  Si   1.745863
     3  O   -0.630887
     4  O   -0.834720
     5  O   -0.830548
     6  O   -0.875226
     7  H    0.363917
     8  H    0.366698
     9  H    0.375403
    10  O   -0.861333
    11  H    0.380445
    12  O   -0.855166
    13  H    0.380865
    14  O   -0.849742
    15  H    0.380824
 Sum of Mulliken charges =  -0.00000
 Mulliken charges with hydrogens summed into heavy atoms:
               1
     1  Zr   1.743606
     2  Si   1.745863
     3  O   -0.630887
     4  O   -0.459318
     5  O   -0.466631
     6  O   -0.508528
    10  O   -0.480888
    12  O   -0.474300
    14  O   -0.468918
 Electronic spatial extent (au):  <R**2>=           2252.0139
 Charge=             -0.0000 electrons
 Dipole moment (field-independent basis, Debye):
    X=              1.8589    Y=             -0.5991    Z=              0.2967  Tot=              1.9754
 Quadrupole moment (field-independent basis, Debye-Ang):
   XX=            -68.9551   YY=            -68.2665   ZZ=            -67.9943
   XY=             -0.3152   XZ=             -0.0062   YZ=              0.6090
 Traceless Quadrupole moment (field-independent basis, Debye-Ang):
   XX=             -0.5498   YY=              0.1388   ZZ=              0.4110
   XY=             -0.3152   XZ=             -0.0062   YZ=              0.6090
 Octapole moment (field-independent basis, Debye-Ang**2):
  XXX=             49.9314  YYY=             14.1469  ZZZ=             13.6513  XYY=             20.1999
  XXY=              8.5616  XXZ=             -1.4743  XZZ=             29.1611  YZZ=            -18.7773
  YYZ=            -11.8388  XYZ=             -3.6284
 Hexadecapole moment (field-independent basis, Debye-Ang**3):
 XXXX=          -1900.9428 YYYY=           -355.2164 ZZZZ=           -349.4836 XXXY=           -101.3166
 XXXZ=             19.8262 YYYX=             10.4657 YYYZ=            -17.2005 ZZZX=             30.8185
 ZZZY=              7.0690 XXYY=           -334.9342 XXZZ=           -325.2977 YYZZ=           -112.6749
 XXYZ=             53.5317 YYXZ=            -35.3369 ZZXY=             16.2098
 N-N= 6.318160717837D+02 E-N=-3.301176090658D+03  KE= 8.306833216482D+02
 PrsmSu:  requested number of processors reduced to:   2 ShMem   1 Linda.
 PrsmSu:  requested number of processors reduced to:  10 ShMem   1 Linda.
   1 Symmetry operations used in ECPInt.
 ECPInt:  NShTT=    3321 NPrTT=   20810 LenC2=    3171 LenP2D=   14982.
 LDataN:  DoStor=T MaxTD1= 9 Len=  602
 Calling FoFJK, ICntrl=      2127 FMM=F ISym2X=0 I1Cent= 0 IOpClX= 0 NMat=1 NMatS=1 NMatT=0.
 CoulSu:  requested number of processors reduced to:  10 ShMem   1 Linda.
 Defaulting to unpruned grid for atomic number  40.
 Defaulting to unpruned grid for atomic number  40.
 Defaulting to unpruned grid for atomic number  40.
 Defaulting to unpruned grid for atomic number  40.
 Defaulting to unpruned grid for atomic number  40.
 Defaulting to unpruned grid for atomic number  40.
 Defaulting to unpruned grid for atomic number  40.
 Defaulting to unpruned grid for atomic number  40.
 Defaulting to unpruned grid for atomic number  40.
 Defaulting to unpruned grid for atomic number  40.
 Defaulting to unpruned grid for atomic number  40.
 Defaulting to unpruned grid for atomic number  40.
 Defaulting to unpruned grid for atomic number  40.
 Defaulting to unpruned grid for atomic number  40.
 Defaulting to unpruned grid for atomic number  40.
 Defaulting to unpruned grid for atomic number  40.
 ***** Axes restored to original set *****
 -------------------------------------------------------------------
 Center     Atomic                   Forces (Hartrees/Bohr)
 Number     Number              X              Y              Z
 -------------------------------------------------------------------
      1       40          -0.000235881   -0.000029064   -0.000023162
      2       14           0.000066450    0.000163111   -0.000001720
      3        8           0.000150245   -0.000060049    0.000023857
      4        8           0.000014429   -0.000050953   -0.000018637
      5        8          -0.000004641   -0.000043975    0.000006934
      6        8          -0.000002902   -0.000027589    0.000001376
      7        1          -0.000014551    0.000011537    0.000007925
      8        1           0.000005071    0.000010114    0.000001044
      9        1          -0.000002410   -0.000012377    0.000003249
     10        8           0.000003985    0.000008543    0.000008713
     11        1           0.000003208   -0.000002308   -0.000003809
     12        8          -0.000004147   -0.000015366   -0.000008176
     13        1           0.000005751    0.000002039    0.000006763
     14        8           0.000013930    0.000049603    0.000002175
     15        1           0.000001461   -0.000003269   -0.000006534
 -------------------------------------------------------------------
 Cartesian Forces:  Max     0.000235881 RMS     0.000052650

 GradGradGradGradGradGradGradGradGradGradGradGradGradGradGradGradGradGrad
 Berny optimization.
 FormGI is forming the generalized inverse of G from B-inverse, IUseBI=4.
 Internal  Forces:  Max     0.000209041 RMS     0.000037951
 Search for a local minimum.
 Step number   1 out of a maximum of   62
 All quantities printed in internal units (Hartrees-Bohrs-Radians)
 Mixed Optimization -- En-DIIS/RFO-DIIS
 Second derivative matrix not updated -- first step.
 ITU=  0
     Eigenvalues ---    0.00230   0.01596   0.01596   0.01597   0.01597
     Eigenvalues ---    0.01598   0.01598   0.03522   0.03617   0.03636
     Eigenvalues ---    0.03969   0.11780   0.12039   0.12694   0.15564
     Eigenvalues ---    0.15873   0.16000   0.16000   0.16000   0.19497
     Eigenvalues ---    0.20181   0.21252   0.21482   0.21527   0.21945
     Eigenvalues ---    0.25000   0.25000   0.25000   0.40909   0.41958
     Eigenvalues ---    0.42175   0.46132   0.54663   0.54703   0.54725
     Eigenvalues ---    0.56111   0.56113   0.561381000.000001000.00000
     Eigenvalues --- 1000.000001000.000001000.000001000.000001000.00000
     Eigenvalues --- 1000.000001000.000001000.000001000.000001000.00000
     Eigenvalues --- 1000.000001000.00000
 RFO step:  Lambda=-4.98875514D-07 EMin= 2.30000000D-03
 Linear search not attempted -- first point.
 Iteration  1 RMS(Cart)=  0.00488040 RMS(Int)=  0.00000442
 Iteration  2 RMS(Cart)=  0.00000704 RMS(Int)=  0.00000000
 Iteration  3 RMS(Cart)=  0.00000000 RMS(Int)=  0.00000000
 Iteration  1 RMS(Cart)=  0.00000000 RMS(Int)=  0.00000000
 Variable       Old X    -DE/DX   Delta X   Delta X   Delta X     New X
                                 (Linear)    (Quad)   (Total)
    R1        3.72697  -0.00021   0.00000  -0.00109  -0.00109   3.72588
    R2        3.65948  -0.00000   0.00000  -0.00002  -0.00002   3.65945
    R3        3.66086   0.00000   0.00000   0.00001   0.00001   3.66087
    R4        3.64668   0.00005   0.00000   0.00021   0.00021   3.64689
    R5        3.07643  -0.00005   0.00000  -0.00010  -0.00010   3.07632
    R6        3.12401  -0.00007   0.00000  -0.00015  -0.00015   3.12386
    R7        3.14037   0.00004   0.00000   0.00010   0.00010   3.14047
    R8        3.12676  -0.00000   0.00000  -0.00001  -0.00001   3.12675
    R9        1.82097  -0.00000   0.00000  -0.00000  -0.00000   1.82096
   R10        1.82078  -0.00001   0.00000  -0.00001  -0.00001   1.82077
   R11        1.82132  -0.00001   0.00000  -0.00002  -0.00002   1.82131
   R12        1.80835   0.00001   0.00000   0.00001   0.00001   1.80835
   R13        1.80858   0.00001   0.00000   0.00002   0.00002   1.80859
   R14        1.80856  -0.00000   0.00000  -0.00000  -0.00000   1.80856
    A1        1.88835   0.00003   0.00000   0.00011   0.00011   1.88845
    A2        1.88384  -0.00002   0.00000  -0.00008  -0.00008   1.88376
    A3        1.91625   0.00002   0.00000   0.00010   0.00010   1.91635
    A4        1.92387  -0.00002   0.00000  -0.00012  -0.00012   1.92376
    A5        1.92200  -0.00001   0.00000   0.00001   0.00001   1.92201
    A6        1.92870  -0.00000   0.00000  -0.00002  -0.00002   1.92868
    A7        0.15306   0.00006   0.00000   0.00000  -0.00000   0.15306
    A8        1.85659   0.00001   0.00000   0.00011   0.00011   1.85669
    A9        1.91681   0.00000   0.00000  -0.00001  -0.00001   1.91680
   A10        2.00441  -0.00001   0.00000  -0.00008  -0.00008   2.00433
   A11        1.98570  -0.00001   0.00000  -0.00006  -0.00006   1.98564
   A12        1.86879   0.00002   0.00000   0.00011   0.00011   1.86890
   A13        1.83492  -0.00001   0.00000  -0.00008  -0.00008   1.83484
   A14        2.86234  -0.00011   0.00000  -0.00003  -0.00003   2.86231
   A15        2.02425  -0.00002   0.00000  -0.00011  -0.00011   2.02414
   A16        2.02687   0.00001   0.00000   0.00005   0.00005   2.02692
   A17        2.01603   0.00000   0.00000   0.00002   0.00002   2.01605
   A18        3.27050   0.00000   0.00000   0.00013   0.00013   3.27063
   A19        3.32824   0.00000   0.00000   0.00022   0.00022   3.32847
   A20        3.06192   0.00001   0.00000   0.00047   0.00047   3.06239
   A21        3.02005   0.00000   0.00000   0.00008   0.00008   3.02013
   A22        3.20150   0.00000   0.00000   0.00029   0.00029   3.20178
   A23        3.12554   0.00001   0.00000   0.00078   0.00078   3.12632
    D1       -2.38082  -0.00000   0.00000   0.00502   0.00502  -2.37580
    D2        1.82066   0.00002   0.00000   0.00515   0.00515   1.82580
    D3       -0.28278   0.00002   0.00000   0.00515   0.00515  -0.27763
    D4       -0.52208  -0.00000   0.00000   0.00014   0.00014  -0.52193
    D5       -2.67829   0.00000   0.00000   0.00015   0.00015  -2.67814
    D6        1.54171   0.00002   0.00000   0.00032   0.00032   1.54203
    D7        2.89578   0.00000   0.00000   0.00012   0.00012   2.89590
    D8       -1.27481   0.00001   0.00000   0.00015   0.00015  -1.27466
    D9        0.74459   0.00000   0.00000   0.00008   0.00008   0.74468
   D10        0.61661   0.00002   0.00000   0.00039   0.00039   0.61700
   D11       -1.46198   0.00001   0.00000   0.00029   0.00029  -1.46169
   D12        2.78200   0.00000   0.00000   0.00024   0.00024   2.78223
   D13        1.54677  -0.00001   0.00000  -0.00015  -0.00015   1.54662
   D14       -2.67951   0.00001   0.00000   0.00002   0.00002  -2.67949
   D15       -0.56198  -0.00000   0.00000  -0.00003  -0.00003  -0.56201
         Item               Value     Threshold  Converged?
 Maximum Force            0.000212     0.000450     YES
 RMS     Force            0.000035     0.000300     YES
 Maximum Displacement     0.012067     0.001800     NO 
 RMS     Displacement     0.004880     0.001200     NO 
 Predicted change in Energy=-2.494381D-07
 GradGradGradGradGradGradGradGradGradGradGradGradGradGradGradGradGradGrad

                          Input orientation:                          
 ---------------------------------------------------------------------
 Center     Atomic      Atomic             Coordinates (Angstroms)
 Number     Number       Type             X           Y           Z
 ---------------------------------------------------------------------
      1         40           0        1.378007   -0.013703   -0.009957
      2         14           0       -2.186514   -0.055280    0.015399
      3          8           0       -0.574791   -0.284341    0.017262
      4          8           0       -2.449705    1.411902    0.730073
      5          8           0       -2.936555   -1.320960    0.788240
      6          8           0       -2.878321    0.004634   -1.486445
      7          1           0       -2.466037   -1.698189    1.539678
      8          1           0       -3.155344   -0.843883   -1.850003
      9          1           0       -3.331086    1.784540    0.616685
     10          8           0        2.151554   -1.310716   -1.222151
     11          1           0        2.656432   -1.847292   -1.832821
     12          8           0        2.044373   -0.295933    1.787048
     13          1           0        2.511113   -0.321732    2.622192
     14          8           0        1.781570    1.776479   -0.607214
     15          1           0        1.913776    2.685952   -0.874276
 ---------------------------------------------------------------------
                    Distance matrix (angstroms):
                    1          2          3          4          5
     1  Zr   0.000000
     2  Si   3.564854   0.000000
     3  O    1.971650   1.627920   0.000000
     4  O    4.151069   1.653073   2.626908   0.000000
     5  O    4.578371   1.661864   2.692010   2.776499   0.000000
     6  O    4.505184   1.654607   2.766025   2.660276   2.633398
     7  H    4.473873   2.258475   2.809543   3.213782   0.963508
     8  H    4.962484   2.245051   3.234041   3.499041   2.689944
     9  H    5.079559   2.248672   3.498105   0.963613   3.135159
    10  O    1.936500   4.682572   3.165840   5.691697   5.470889
    11  H    2.884312   5.484647   4.038121   6.577493   6.199071
    12  O    1.937247   4.593153   3.161059   4.922462   5.182464
    13  H    2.882190   5.379039   4.038547   5.585276   5.834288
    14  O    1.929852   4.414598   3.192081   4.452521   5.813959
    15  H    2.884828   5.011811   3.976235   4.820488   6.507305
                    6          7          8          9         10
     6  O    0.000000
     7  H    3.496714   0.000000
     8  H    0.963794   3.562994   0.000000
     9  H    2.792170   3.705351   3.608884   0.000000
    10  O    5.205731   5.394440   5.364261   6.559060   0.000000
    11  H    5.846631   6.134792   5.897785   7.418939   0.956940
    12  O    5.919376   4.729832   6.369101   5.881639   3.177507
    13  H    6.784793   5.276219   7.237535   6.526081   3.985768
    14  O    5.062318   5.892761   5.725726   5.257114   3.169512
    15  H    5.525252   6.650611   6.253620   5.526670   4.018820
                   11         12         13         14         15
    11  H    0.000000
    12  O    3.985572   0.000000
    13  H    4.711221   0.957067   0.000000
    14  O    3.924183   3.177491   3.919667   0.000000
    15  H    4.692617   3.998917   4.650620   0.957049   0.000000
 Stoichiometry    H6O7SiZr
 Framework group  C1[X(H6O7SiZr)]
 Deg. of freedom    39
 Full point group                 C1      NOp   1
 Largest Abelian subgroup         C1      NOp   1
 Largest concise Abelian subgroup C1      NOp   1
                         Standard orientation:                         
 ---------------------------------------------------------------------
 Center     Atomic      Atomic             Coordinates (Angstroms)
 Number     Number       Type             X           Y           Z
 ---------------------------------------------------------------------
      1         40           0        1.380171   -0.012539   -0.010235
      2         14           0       -2.184595   -0.018967    0.013931
      3          8           0       -0.575203   -0.263849    0.017407
      4          8           0       -2.433594    1.453820    0.722133
      5          8           0       -2.947307   -1.273847    0.791966
      6          8           0       -2.875267    0.041223   -1.488425
      7          1           0       -2.480778   -1.652416    1.545215
      8          1           0       -3.160494   -0.806100   -1.848406
      9          1           0       -3.311231    1.834607    0.606789
     10          8           0        2.141343   -1.322344   -1.216494
     11          1           0        2.641131   -1.866503   -1.824637
     12          8           0        2.043115   -0.293502    1.788234
     13          1           0        2.509293   -0.320261    2.623661
     14          8           0        1.801517    1.770979   -0.615097
     15          1           0        1.942749    2.677941   -0.886050
 ---------------------------------------------------------------------
 Rotational constants (GHZ):           1.6298242           0.4752244           0.4725159
 Basis read from rwf:  (5D, 7F)
 Pseudo-potential data read from rwf file.
 There are   300 symmetry adapted cartesian basis functions of A   symmetry.
 There are   266 symmetry adapted basis functions of A   symmetry.
   266 basis functions,   576 primitive gaussians,   300 cartesian basis functions
    44 alpha electrons       44 beta electrons
       nuclear repulsion energy       631.8600918573 Hartrees.
 NAtoms=   15 NActive=   15 NUniq=   15 SFac= 1.00D+00 NAtFMM=   60 NAOKFM=F Big=F
 Integral buffers will be    131072 words long.
 Raffenetti 2 integral format.
 Two-electron integral symmetry is turned on.
 Nuclear repulsion after empirical dispersion term =      631.8498788713 Hartrees.
 One-electron integrals computed using PRISM.
 PrsmSu:  requested number of processors reduced to:   4 ShMem   1 Linda.
   1 Symmetry operations used in ECPInt.
 ECPInt:  NShTT=    3321 NPrTT=   20810 LenC2=    3171 LenP2D=   14982.
 LDataN:  DoStor=T MaxTD1= 8 Len=  415
 NBasis=   266 RedAO= T EigKep=  1.02D-04  NBF=   266
 NBsUse=   266 1.00D-06 EigRej= -1.00D+00 NBFU=   266
 Defaulting to unpruned grid for atomic number  40.
 Initial guess from the checkpoint file:  "/localscratch/sarashs.35132325.0/Gau-9168.chk"
 B after Tr=    -0.000000    0.000000    0.000000
         Rot=    0.999997   -0.002342   -0.000047    0.000006 Ang=  -0.27 deg.
 Requested convergence on RMS density matrix=1.00D-08 within 128 cycles.
 Requested convergence on MAX density matrix=1.00D-06.
 Requested convergence on             energy=1.00D-06.
 No special actions if energy rises.
 Defaulting to unpruned grid for atomic number  40.
 Defaulting to unpruned grid for atomic number  40.
 Defaulting to unpruned grid for atomic number  40.
 Defaulting to unpruned grid for atomic number  40.
 Defaulting to unpruned grid for atomic number  40.
 Defaulting to unpruned grid for atomic number  40.
 Defaulting to unpruned grid for atomic number  40.
 Defaulting to unpruned grid for atomic number  40.
 Defaulting to unpruned grid for atomic number  40.
 Defaulting to unpruned grid for atomic number  40.
 Defaulting to unpruned grid for atomic number  40.
 Defaulting to unpruned grid for atomic number  40.
 Defaulting to unpruned grid for atomic number  40.
 Defaulting to unpruned grid for atomic number  40.
 Defaulting to unpruned grid for atomic number  40.
 Defaulting to unpruned grid for atomic number  40.
 SCF Done:  E(RB3LYP) =  -867.127848921     A.U. after    8 cycles
            NFock=  8  Conv=0.32D-08     -V/T= 2.0439
 PrsmSu:  requested number of processors reduced to:   2 ShMem   1 Linda.
 PrsmSu:  requested number of processors reduced to:  10 ShMem   1 Linda.
   1 Symmetry operations used in ECPInt.
 ECPInt:  NShTT=    3321 NPrTT=   20810 LenC2=    3171 LenP2D=   14982.
 LDataN:  DoStor=T MaxTD1= 9 Len=  602
 Calling FoFJK, ICntrl=      2127 FMM=F ISym2X=0 I1Cent= 0 IOpClX= 0 NMat=1 NMatS=1 NMatT=0.
 CoulSu:  requested number of processors reduced to:  10 ShMem   1 Linda.
 Defaulting to unpruned grid for atomic number  40.
 Defaulting to unpruned grid for atomic number  40.
 Defaulting to unpruned grid for atomic number  40.
 Defaulting to unpruned grid for atomic number  40.
 Defaulting to unpruned grid for atomic number  40.
 Defaulting to unpruned grid for atomic number  40.
 Defaulting to unpruned grid for atomic number  40.
 Defaulting to unpruned grid for atomic number  40.
 Defaulting to unpruned grid for atomic number  40.
 Defaulting to unpruned grid for atomic number  40.
 Defaulting to unpruned grid for atomic number  40.
 Defaulting to unpruned grid for atomic number  40.
 Defaulting to unpruned grid for atomic number  40.
 Defaulting to unpruned grid for atomic number  40.
 Defaulting to unpruned grid for atomic number  40.
 Defaulting to unpruned grid for atomic number  40.
 ***** Axes restored to original set *****
 -------------------------------------------------------------------
 Center     Atomic                   Forces (Hartrees/Bohr)
 Number     Number              X              Y              Z
 -------------------------------------------------------------------
      1       40           0.000019936    0.000046911   -0.000052798
      2       14          -0.000019606    0.000087653   -0.000011325
      3        8          -0.000025492   -0.000080713    0.000030398
      4        8           0.000015253   -0.000021311   -0.000010371
      5        8           0.000009076   -0.000020593   -0.000008523
      6        8           0.000003984   -0.000008343    0.000008295
      7        1          -0.000010544    0.000008949    0.000013015
      8        1           0.000002692    0.000001592   -0.000001509
      9        1          -0.000004886   -0.000004434    0.000006279
     10        8           0.000007195   -0.000003598   -0.000006759
     11        1          -0.000001475   -0.000000448   -0.000000249
     12        8          -0.000000393   -0.000015111    0.000028069
     13        1           0.000002453    0.000001529   -0.000002943
     14        8           0.000003653    0.000012246    0.000011859
     15        1          -0.000001847   -0.000004328   -0.000003438
 -------------------------------------------------------------------
 Cartesian Forces:  Max     0.000087653 RMS     0.000023635

 GradGradGradGradGradGradGradGradGradGradGradGradGradGradGradGradGradGrad
 Berny optimization.
 Using GEDIIS/GDIIS optimizer.
 FormGI is forming the generalized inverse of G from B-inverse, IUseBI=4.
 Internal  Forces:  Max     0.000088122 RMS     0.000017496
 Search for a local minimum.
 Step number   2 out of a maximum of   62
 All quantities printed in internal units (Hartrees-Bohrs-Radians)
 Mixed Optimization -- En-DIIS/RFO-DIIS
 Swapping is turned off.
 Update second derivatives using D2CorX and points    1    2
 DE= -5.78D-07 DEPred=-2.49D-07 R= 2.32D+00
 Trust test= 2.32D+00 RLast= 9.01D-03 DXMaxT set to 3.00D-01
 ITU=  0  0
     Eigenvalues ---    0.00117   0.01544   0.01596   0.01596   0.01598
     Eigenvalues ---    0.01598   0.01606   0.03406   0.03614   0.03629
     Eigenvalues ---    0.03933   0.11729   0.12006   0.12702   0.15412
     Eigenvalues ---    0.15803   0.15985   0.16000   0.16004   0.20023
     Eigenvalues ---    0.21132   0.21261   0.21521   0.21853   0.24529
     Eigenvalues ---    0.24901   0.25000   0.29298   0.40811   0.41782
     Eigenvalues ---    0.42023   0.47282   0.54668   0.54709   0.54745
     Eigenvalues ---    0.56109   0.56128   0.561591000.000001000.00000
     Eigenvalues --- 1000.000001000.000001000.000001000.000001000.00000
     Eigenvalues --- 1000.000001000.000001000.000001000.000001000.00000
     Eigenvalues --- 1000.000001000.00000
 En-DIIS/RFO-DIIS/Sim-DIIS IScMMF=       -3 using points:     2    1
 RFO step:  Lambda=-3.61789536D-07.
 DidBck=F Rises=F RFO-DIIS coefs:    2.82925   -1.82925
 Iteration  1 RMS(Cart)=  0.00905650 RMS(Int)=  0.00001520
 Iteration  2 RMS(Cart)=  0.00002421 RMS(Int)=  0.00000001
 Iteration  3 RMS(Cart)=  0.00000000 RMS(Int)=  0.00000001
 Iteration  1 RMS(Cart)=  0.00000000 RMS(Int)=  0.00000000
 Variable       Old X    -DE/DX   Delta X   Delta X   Delta X     New X
                                 (Linear)    (Quad)   (Total)
    R1        3.72588   0.00003  -0.00199   0.00162  -0.00038   3.72550
    R2        3.65945   0.00001  -0.00004   0.00009   0.00005   3.65950
    R3        3.66087   0.00003   0.00002   0.00017   0.00019   3.66106
    R4        3.64689   0.00000   0.00039  -0.00024   0.00015   3.64705
    R5        3.07632   0.00001  -0.00019   0.00018  -0.00001   3.07631
    R6        3.12386  -0.00003  -0.00028   0.00010  -0.00018   3.12367
    R7        3.14047   0.00001   0.00018  -0.00008   0.00010   3.14056
    R8        3.12675  -0.00001  -0.00001  -0.00002  -0.00004   3.12672
    R9        1.82096   0.00000  -0.00001   0.00001   0.00000   1.82097
   R10        1.82077   0.00000  -0.00002   0.00002  -0.00000   1.82076
   R11        1.82131  -0.00000  -0.00003   0.00002  -0.00001   1.82129
   R12        1.80835  -0.00000   0.00002  -0.00001   0.00000   1.80836
   R13        1.80859  -0.00000   0.00003  -0.00002   0.00001   1.80860
   R14        1.80856  -0.00000  -0.00000  -0.00001  -0.00001   1.80855
    A1        1.88845   0.00001   0.00019  -0.00006   0.00013   1.88859
    A2        1.88376  -0.00003  -0.00014  -0.00009  -0.00024   1.88353
    A3        1.91635   0.00001   0.00019  -0.00006   0.00012   1.91647
    A4        1.92376  -0.00000  -0.00022   0.00011  -0.00011   1.92365
    A5        1.92201   0.00001   0.00001   0.00007   0.00009   1.92210
    A6        1.92868   0.00000  -0.00003   0.00003  -0.00000   1.92867
    A7        0.15306   0.00005  -0.00000   0.00000   0.00000   0.15306
    A8        1.85669   0.00000   0.00020  -0.00011   0.00009   1.85679
    A9        1.91680   0.00000  -0.00001  -0.00000  -0.00002   1.91678
   A10        2.00433  -0.00001  -0.00014   0.00001  -0.00014   2.00420
   A11        1.98564  -0.00001  -0.00011   0.00005  -0.00006   1.98558
   A12        1.86890   0.00001   0.00021  -0.00004   0.00017   1.86907
   A13        1.83484  -0.00000  -0.00015   0.00009  -0.00006   1.83478
   A14        2.86231  -0.00009  -0.00006   0.00005  -0.00001   2.86230
   A15        2.02414  -0.00000  -0.00019   0.00010  -0.00009   2.02405
   A16        2.02692   0.00001   0.00009   0.00000   0.00009   2.02700
   A17        2.01605   0.00000   0.00004  -0.00001   0.00002   2.01608
   A18        3.27063  -0.00000   0.00024  -0.00026  -0.00002   3.27061
   A19        3.32847   0.00001   0.00041   0.00031   0.00072   3.32918
   A20        3.06239   0.00000   0.00086  -0.00051   0.00035   3.06273
   A21        3.02013   0.00000   0.00015   0.00021   0.00036   3.02049
   A22        3.20178   0.00000   0.00053  -0.00012   0.00040   3.20218
   A23        3.12632   0.00001   0.00143  -0.00009   0.00135   3.12767
    D1       -2.37580  -0.00000   0.00918   0.00015   0.00933  -2.36647
    D2        1.82580   0.00001   0.00941   0.00011   0.00952   1.83532
    D3       -0.27763   0.00002   0.00943   0.00017   0.00960  -0.26803
    D4       -0.52193   0.00000   0.00026   0.00003   0.00029  -0.52164
    D5       -2.67814   0.00001   0.00028   0.00004   0.00031  -2.67782
    D6        1.54203   0.00001   0.00058  -0.00009   0.00049   1.54252
    D7        2.89590   0.00000   0.00021   0.00001   0.00022   2.89612
    D8       -1.27466   0.00000   0.00027  -0.00004   0.00023  -1.27443
    D9        0.74468   0.00001   0.00015   0.00008   0.00023   0.74491
   D10        0.61700   0.00002   0.00071   0.00001   0.00072   0.61772
   D11       -1.46169   0.00001   0.00054   0.00011   0.00065  -1.46104
   D12        2.78223   0.00000   0.00043   0.00007   0.00051   2.78274
   D13        1.54662  -0.00001  -0.00027   0.00006  -0.00021   1.54641
   D14       -2.67949  -0.00000   0.00004  -0.00009  -0.00005  -2.67954
   D15       -0.56201  -0.00000  -0.00006  -0.00000  -0.00006  -0.56208
         Item               Value     Threshold  Converged?
 Maximum Force            0.000031     0.000450     YES
 RMS     Force            0.000011     0.000300     YES
 Maximum Displacement     0.022409     0.001800     NO 
 RMS     Displacement     0.009057     0.001200     NO 
 Predicted change in Energy=-1.808966D-07
 GradGradGradGradGradGradGradGradGradGradGradGradGradGradGradGradGradGrad

                          Input orientation:                          
 ---------------------------------------------------------------------
 Center     Atomic      Atomic             Coordinates (Angstroms)
 Number     Number       Type             X           Y           Z
 ---------------------------------------------------------------------
      1         40           0        1.377870   -0.013702   -0.009356
      2         14           0       -2.186453   -0.055224    0.014769
      3          8           0       -0.574731   -0.284230    0.018572
      4          8           0       -2.450076    1.416021    0.720655
      5          8           0       -2.936749   -1.316394    0.794811
      6          8           0       -2.877540   -0.004480   -1.487724
      7          1           0       -2.466835   -1.688821    1.549015
      8          1           0       -3.154213   -0.855208   -1.846330
      9          1           0       -3.331534    1.787732    0.604826
     10          8           0        2.150481   -1.306266   -1.226930
     11          1           0        2.654615   -1.840540   -1.840231
     12          8           0        2.045431   -0.303005    1.786190
     13          1           0        2.513552   -0.332072    2.620456
     14          8           0        1.781317    1.778798   -0.599961
     15          1           0        1.913334    2.688869   -0.865052
 ---------------------------------------------------------------------
                    Distance matrix (angstroms):
                    1          2          3          4          5
     1  Zr   0.000000
     2  Si   3.564647   0.000000
     3  O    1.971451   1.627915   0.000000
     4  O    4.150927   1.652977   2.626917   0.000000
     5  O    4.578169   1.661915   2.692033   2.776408   0.000000
     6  O    4.504906   1.654588   2.765884   2.660354   2.633361
     7  H    4.473958   2.258576   2.809838   3.213488   0.963506
     8  H    4.962095   2.245044   3.233822   3.499100   2.689909
     9  H    5.079456   2.248525   3.498097   0.963615   3.134892
    10  O    1.936526   4.681444   3.165851   5.689381   5.474253
    11  H    2.884357   5.483093   4.038059   6.574282   6.203348
    12  O    1.937347   4.594362   3.160708   4.929502   5.179952
    13  H    2.882194   5.381106   4.038513   5.594880   5.831608
    14  O    1.929933   4.414151   3.192120   4.447507   5.812551
    15  H    2.884932   5.011226   3.976252   4.813934   6.505428
                    6          7          8          9         10
     6  O    0.000000
     7  H    3.496779   0.000000
     8  H    0.963787   3.563112   0.000000
     9  H    2.792293   3.704810   3.608981   0.000000
    10  O    5.200352   5.401095   5.359747   6.555962   0.000000
    11  H    5.839530   6.143228   5.891808   7.414623   0.956942
    12  O    5.919735   4.726233   6.366822   5.888849   3.177492
    13  H    6.785893   5.271907   7.235290   6.536158   3.985380
    14  O    5.066868   5.889760   5.731569   5.252888   3.169699
    15  H    5.531214   6.646636   6.261264   5.520981   4.018495
                   11         12         13         14         15
    11  H    0.000000
    12  O    3.985730   0.000000
    13  H    4.710956   0.957070   0.000000
    14  O    3.924351   3.177637   3.919570   0.000000
    15  H    4.692123   3.999730   4.651357   0.957043   0.000000
 Stoichiometry    H6O7SiZr
 Framework group  C1[X(H6O7SiZr)]
 Deg. of freedom    39
 Full point group                 C1      NOp   1
 Largest Abelian subgroup         C1      NOp   1
 Largest concise Abelian subgroup C1      NOp   1
                         Standard orientation:                         
 ---------------------------------------------------------------------
 Center     Atomic      Atomic             Coordinates (Angstroms)
 Number     Number       Type             X           Y           Z
 ---------------------------------------------------------------------
      1         40           0        1.380069   -0.012489   -0.010265
      2         14           0       -2.184491   -0.018891    0.013845
      3          8           0       -0.575109   -0.263815    0.016792
      4          8           0       -2.433569    1.452422    0.724852
      5          8           0       -2.947204   -1.275294    0.789525
      6          8           0       -2.875047    0.043900   -1.488437
      7          1           0       -2.480989   -1.654965    1.542412
      8          1           0       -3.160109   -0.802802   -1.849989
      9          1           0       -3.311313    1.833221    0.610349
     10          8           0        2.139874   -1.308378   -1.232355
     11          1           0        2.638705   -1.845469   -1.847529
     12          8           0        2.044743   -0.314613    1.784239
     13          1           0        2.512556   -0.351202    2.618382
     14          8           0        1.801197    1.777982   -0.594649
     15          1           0        1.942196    2.687622   -0.856579
 ---------------------------------------------------------------------
 Rotational constants (GHZ):           1.6297695           0.4752592           0.4725507
 Basis read from rwf:  (5D, 7F)
 Pseudo-potential data read from rwf file.
 There are   300 symmetry adapted cartesian basis functions of A   symmetry.
 There are   266 symmetry adapted basis functions of A   symmetry.
   266 basis functions,   576 primitive gaussians,   300 cartesian basis functions
    44 alpha electrons       44 beta electrons
       nuclear repulsion energy       631.8691188739 Hartrees.
 NAtoms=   15 NActive=   15 NUniq=   15 SFac= 1.00D+00 NAtFMM=   60 NAOKFM=F Big=F
 Integral buffers will be    131072 words long.
 Raffenetti 2 integral format.
 Two-electron integral symmetry is turned on.
 Nuclear repulsion after empirical dispersion term =      631.8589055084 Hartrees.
 One-electron integrals computed using PRISM.
 PrsmSu:  requested number of processors reduced to:   4 ShMem   1 Linda.
   1 Symmetry operations used in ECPInt.
 ECPInt:  NShTT=    3321 NPrTT=   20810 LenC2=    3171 LenP2D=   14983.
 LDataN:  DoStor=T MaxTD1= 8 Len=  415
 NBasis=   266 RedAO= T EigKep=  1.02D-04  NBF=   266
 NBsUse=   266 1.00D-06 EigRej= -1.00D+00 NBFU=   266
 Defaulting to unpruned grid for atomic number  40.
 Initial guess from the checkpoint file:  "/localscratch/sarashs.35132325.0/Gau-9168.chk"
 B after Tr=     0.000000   -0.000000   -0.000000
         Rot=    0.999993   -0.003834   -0.000090    0.000014 Ang=  -0.44 deg.
 ExpMin= 1.01D-02 ExpMax= 1.61D+04 ExpMxC= 2.43D+03 IAcc=3 IRadAn=         5 AccDes= 0.00D+00
 Harris functional with IExCor=  402 and IRadAn=       5 diagonalized for initial guess.
 HarFok:  IExCor=  402 AccDes= 0.00D+00 IRadAn=         5 IDoV= 1 UseB2=F ITyADJ=14
 ICtDFT=  3500011 ScaDFX=  1.000000  1.000000  1.000000  1.000000
 Defaulting to unpruned grid for atomic number  40.
 FoFCou: FMM=F IPFlag=           0 FMFlag=      100000 FMFlg1=           0
         NFxFlg=           0 DoJE=T BraDBF=F KetDBF=T FulRan=T
         wScrn=  0.000000 ICntrl=       500 IOpCl=  0 I1Cent=   200000004 NGrid=           0
         NMat0=    1 NMatS0=      1 NMatT0=    0 NMatD0=    1 NMtDS0=    0 NMtDT0=    0
 Petite list used in FoFCou.
 Requested convergence on RMS density matrix=1.00D-08 within 128 cycles.
 Requested convergence on MAX density matrix=1.00D-06.
 Requested convergence on             energy=1.00D-06.
 No special actions if energy rises.
 Defaulting to unpruned grid for atomic number  40.
 Defaulting to unpruned grid for atomic number  40.
 Defaulting to unpruned grid for atomic number  40.
 Defaulting to unpruned grid for atomic number  40.
 Defaulting to unpruned grid for atomic number  40.
 Defaulting to unpruned grid for atomic number  40.
 Defaulting to unpruned grid for atomic number  40.
 Defaulting to unpruned grid for atomic number  40.
 Defaulting to unpruned grid for atomic number  40.
 Defaulting to unpruned grid for atomic number  40.
 Defaulting to unpruned grid for atomic number  40.
 Defaulting to unpruned grid for atomic number  40.
 Defaulting to unpruned grid for atomic number  40.
 Defaulting to unpruned grid for atomic number  40.
 Defaulting to unpruned grid for atomic number  40.
 Defaulting to unpruned grid for atomic number  40.
 SCF Done:  E(RB3LYP) =  -867.127849616     A.U. after    8 cycles
            NFock=  8  Conv=0.52D-08     -V/T= 2.0439
 PrsmSu:  requested number of processors reduced to:   2 ShMem   1 Linda.
 PrsmSu:  requested number of processors reduced to:  10 ShMem   1 Linda.
   1 Symmetry operations used in ECPInt.
 ECPInt:  NShTT=    3321 NPrTT=   20810 LenC2=    3171 LenP2D=   14983.
 LDataN:  DoStor=T MaxTD1= 9 Len=  602
 Calling FoFJK, ICntrl=      2127 FMM=F ISym2X=0 I1Cent= 0 IOpClX= 0 NMat=1 NMatS=1 NMatT=0.
 CoulSu:  requested number of processors reduced to:  10 ShMem   1 Linda.
 Defaulting to unpruned grid for atomic number  40.
 Defaulting to unpruned grid for atomic number  40.
 Defaulting to unpruned grid for atomic number  40.
 Defaulting to unpruned grid for atomic number  40.
 Defaulting to unpruned grid for atomic number  40.
 Defaulting to unpruned grid for atomic number  40.
 Defaulting to unpruned grid for atomic number  40.
 Defaulting to unpruned grid for atomic number  40.
 Defaulting to unpruned grid for atomic number  40.
 Defaulting to unpruned grid for atomic number  40.
 Defaulting to unpruned grid for atomic number  40.
 Defaulting to unpruned grid for atomic number  40.
 Defaulting to unpruned grid for atomic number  40.
 Defaulting to unpruned grid for atomic number  40.
 Defaulting to unpruned grid for atomic number  40.
 Defaulting to unpruned grid for atomic number  40.
 ***** Axes restored to original set *****
 -------------------------------------------------------------------
 Center     Atomic                   Forces (Hartrees/Bohr)
 Number     Number              X              Y              Z
 -------------------------------------------------------------------
      1       40           0.000129607    0.000063181   -0.000058594
      2       14          -0.000034910   -0.000006869   -0.000016967
      3        8          -0.000081106   -0.000072213    0.000035216
      4        8           0.000002738    0.000021493    0.000000306
      5        8           0.000016066    0.000000586   -0.000020796
      6        8          -0.000000859    0.000009848    0.000007521
      7        1          -0.000005436    0.000009753    0.000012240
      8        1           0.000001581   -0.000003663   -0.000002782
      9        1          -0.000003392    0.000001788    0.000010161
     10        8          -0.000002548    0.000014544    0.000003590
     11        1          -0.000004176   -0.000000022    0.000000533
     12        8          -0.000013948   -0.000004084    0.000015656
     13        1           0.000004181    0.000001160   -0.000007029
     14        8          -0.000003789   -0.000036895    0.000021975
     15        1          -0.000004009    0.000001392   -0.000001028
 -------------------------------------------------------------------
 Cartesian Forces:  Max     0.000129607 RMS     0.000030981

 GradGradGradGradGradGradGradGradGradGradGradGradGradGradGradGradGradGrad
 Berny optimization.
 Using GEDIIS/GDIIS optimizer.
 FormGI is forming the generalized inverse of G from B-inverse, IUseBI=4.
 Internal  Forces:  Max     0.000109313 RMS     0.000021686
 Search for a local minimum.
 Step number   3 out of a maximum of   62
 All quantities printed in internal units (Hartrees-Bohrs-Radians)
 Mixed Optimization -- En-DIIS/RFO-DIIS
 Swapping is turned off.
 Update second derivatives using D2CorX and points    1    2    3
 DE= -6.95D-07 DEPred=-1.81D-07 R= 3.84D+00
 Trust test= 3.84D+00 RLast= 1.66D-02 DXMaxT set to 3.00D-01
 ITU=  0  0  0
     Eigenvalues ---    0.00047   0.01512   0.01596   0.01597   0.01598
     Eigenvalues ---    0.01598   0.01653   0.03317   0.03613   0.03627
     Eigenvalues ---    0.03932   0.11807   0.12031   0.12705   0.15350
     Eigenvalues ---    0.15901   0.15999   0.16001   0.16063   0.20110
     Eigenvalues ---    0.21251   0.21379   0.21643   0.22431   0.24592
     Eigenvalues ---    0.24896   0.25003   0.35774   0.41248   0.41955
     Eigenvalues ---    0.44178   0.52896   0.54691   0.54714   0.55184
     Eigenvalues ---    0.56120   0.56130   0.565361000.000001000.00000
     Eigenvalues --- 1000.000001000.000001000.000001000.000001000.00000
     Eigenvalues --- 1000.000001000.000001000.000001000.000001000.00000
     Eigenvalues --- 1000.000001000.00000
 En-DIIS/RFO-DIIS/Sim-DIIS IScMMF=       -3 using points:     3    2    1
 RFO step:  Lambda=-4.19234739D-07.
 DIIS inversion failure, remove point   3.
 RFO-DIIS uses    2 points instead of    3
 DidBck=F Rises=F RFO-DIIS coefs:    2.68166   -1.68166    0.00000
 Iteration  1 RMS(Cart)=  0.01523296 RMS(Int)=  0.00004298
 Iteration  2 RMS(Cart)=  0.00006837 RMS(Int)=  0.00000002
 Iteration  3 RMS(Cart)=  0.00000000 RMS(Int)=  0.00000002
 Iteration  1 RMS(Cart)=  0.00000001 RMS(Int)=  0.00000001
 Variable       Old X    -DE/DX   Delta X   Delta X   Delta X     New X
                                 (Linear)    (Quad)   (Total)
    R1        3.72550   0.00011  -0.00064   0.00044  -0.00019   3.72531
    R2        3.65950  -0.00002   0.00008  -0.00021  -0.00013   3.65938
    R3        3.66106   0.00001   0.00032  -0.00015   0.00017   3.66122
    R4        3.64705  -0.00004   0.00026  -0.00033  -0.00007   3.64698
    R5        3.07631   0.00003  -0.00002   0.00005   0.00003   3.07634
    R6        3.12367   0.00002  -0.00031   0.00017  -0.00014   3.12354
    R7        3.14056  -0.00002   0.00016  -0.00009   0.00007   3.14063
    R8        3.12672  -0.00000  -0.00006   0.00001  -0.00005   3.12667
    R9        1.82097   0.00000   0.00001   0.00000   0.00001   1.82098
   R10        1.82076   0.00000  -0.00000   0.00000  -0.00000   1.82076
   R11        1.82129   0.00000  -0.00002   0.00001  -0.00001   1.82128
   R12        1.80836  -0.00000   0.00001  -0.00000   0.00000   1.80836
   R13        1.80860  -0.00000   0.00001  -0.00000   0.00001   1.80861
   R14        1.80855   0.00000  -0.00002   0.00001  -0.00001   1.80854
    A1        1.88859   0.00001   0.00022   0.00002   0.00024   1.88883
    A2        1.88353  -0.00003  -0.00040  -0.00005  -0.00045   1.88308
    A3        1.91647   0.00000   0.00021  -0.00003   0.00017   1.91664
    A4        1.92365   0.00001  -0.00018   0.00013  -0.00005   1.92360
    A5        1.92210   0.00001   0.00015  -0.00000   0.00015   1.92225
    A6        1.92867   0.00000  -0.00001  -0.00006  -0.00006   1.92861
    A7        0.15306   0.00004   0.00000   0.00000   0.00000   0.15306
    A8        1.85679  -0.00000   0.00016  -0.00005   0.00010   1.85689
    A9        1.91678  -0.00000  -0.00003   0.00001  -0.00002   1.91677
   A10        2.00420  -0.00000  -0.00023   0.00008  -0.00015   2.00405
   A11        1.98558   0.00000  -0.00010   0.00002  -0.00008   1.98550
   A12        1.86907  -0.00000   0.00029  -0.00010   0.00019   1.86926
   A13        1.83478   0.00000  -0.00010   0.00005  -0.00005   1.83473
   A14        2.86230  -0.00007  -0.00002   0.00001  -0.00001   2.86229
   A15        2.02405   0.00001  -0.00016   0.00012  -0.00004   2.02401
   A16        2.02700  -0.00000   0.00014  -0.00007   0.00007   2.02708
   A17        2.01608  -0.00000   0.00004  -0.00001   0.00003   2.01610
   A18        3.27061  -0.00000  -0.00004  -0.00036  -0.00040   3.27020
   A19        3.32918   0.00001   0.00121   0.00084   0.00205   3.33123
   A20        3.06273  -0.00001   0.00058  -0.00067  -0.00008   3.06265
   A21        3.02049   0.00000   0.00061   0.00015   0.00076   3.02125
   A22        3.20218  -0.00000   0.00067  -0.00018   0.00049   3.20267
   A23        3.12767   0.00000   0.00227  -0.00022   0.00204   3.12971
    D1       -2.36647   0.00000   0.01570   0.00005   0.01575  -2.35072
    D2        1.83532   0.00000   0.01601  -0.00008   0.01593   1.85125
    D3       -0.26803   0.00002   0.01614   0.00004   0.01618  -0.25185
    D4       -0.52164   0.00000   0.00049   0.00000   0.00049  -0.52115
    D5       -2.67782   0.00001   0.00053   0.00001   0.00054  -2.67729
    D6        1.54252   0.00000   0.00083  -0.00012   0.00071   1.54323
    D7        2.89612   0.00000   0.00037   0.00007   0.00044   2.89656
    D8       -1.27443   0.00000   0.00039   0.00005   0.00044  -1.27399
    D9        0.74491   0.00001   0.00039   0.00006   0.00045   0.74536
   D10        0.61772   0.00001   0.00120   0.00004   0.00124   0.61896
   D11       -1.46104   0.00001   0.00109   0.00009   0.00117  -1.45987
   D12        2.78274   0.00001   0.00085   0.00017   0.00102   2.78376
   D13        1.54641   0.00000  -0.00035   0.00003  -0.00032   1.54609
   D14       -2.67954  -0.00000  -0.00009  -0.00006  -0.00015  -2.67969
   D15       -0.56208  -0.00000  -0.00011  -0.00006  -0.00017  -0.56225
         Item               Value     Threshold  Converged?
 Maximum Force            0.000107     0.000450     YES
 RMS     Force            0.000019     0.000300     YES
 Maximum Displacement     0.037762     0.001800     NO 
 RMS     Displacement     0.015235     0.001200     NO 
 Predicted change in Energy=-2.096349D-07
 GradGradGradGradGradGradGradGradGradGradGradGradGradGradGradGradGradGrad

                          Input orientation:                          
 ---------------------------------------------------------------------
 Center     Atomic      Atomic             Coordinates (Angstroms)
 Number     Number       Type             X           Y           Z
 ---------------------------------------------------------------------
      1         40           0        1.377828   -0.013786   -0.008306
      2         14           0       -2.186423   -0.055233    0.013629
      3          8           0       -0.574680   -0.284125    0.020756
      4          8           0       -2.450719    1.422841    0.704670
      5          8           0       -2.937173   -1.308643    0.805724
      6          8           0       -2.876341   -0.019776   -1.489812
      7          1           0       -2.468271   -1.672861    1.564552
      8          1           0       -3.152462   -0.874130   -1.840114
      9          1           0       -3.332272    1.793067    0.584844
     10          8           0        2.148855   -1.298727   -1.234814
     11          1           0        2.651440   -1.829274   -1.852607
     12          8           0        2.047179   -0.314787    1.784743
     13          1           0        2.518249   -0.349142    2.617151
     14          8           0        1.781046    1.782405   -0.587631
     15          1           0        1.912213    2.693651   -0.849073
 ---------------------------------------------------------------------
                    Distance matrix (angstroms):
                    1          2          3          4          5
     1  Zr   0.000000
     2  Si   3.564559   0.000000
     3  O    1.971348   1.627931   0.000000
     4  O    4.150904   1.652905   2.626974   0.000000
     5  O    4.578049   1.661950   2.692060   2.776303   0.000000
     6  O    4.504758   1.654563   2.765744   2.660460   2.633318
     7  H    4.474247   2.258655   2.810264   3.212954   0.963506
     8  H    4.961778   2.245036   3.233559   3.499206   2.689909
     9  H    5.079526   2.248438   3.498176   0.963619   3.134566
    10  O    1.936460   4.679693   3.165994   5.685474   5.480107
    11  H    2.884359   5.480417   4.037923   6.568709   6.210505
    12  O    1.937436   4.596477   3.160179   4.941356   5.175905
    13  H    2.882022   5.385040   4.038775   5.611430   5.827825
    14  O    1.929898   4.413530   3.192198   4.439275   5.810130
    15  H    2.884904   5.009934   3.975977   4.802526   6.501789
                    6          7          8          9         10
     6  O    0.000000
     7  H    3.496906   0.000000
     8  H    0.963782   3.563403   0.000000
     9  H    2.792574   3.703915   3.609251   0.000000
    10  O    5.191660   5.412419   5.352629   6.550810   0.000000
    11  H    5.827715   6.157344   5.881984   7.407248   0.956942
    12  O    5.920371   4.720396   6.363075   5.900958   3.177452
    13  H    6.788021   5.265508   7.231859   6.553467   3.984444
    14  O    5.074745   5.884510   5.741550   5.246030   3.169780
    15  H    5.541072   6.639327   6.273927   5.511061   4.017945
                   11         12         13         14         15
    11  H    0.000000
    12  O    3.986115   0.000000
    13  H    4.710336   0.957074   0.000000
    14  O    3.924535   3.177610   3.918876   0.000000
    15  H    4.691522   4.000738   4.651944   0.957040   0.000000
 Stoichiometry    H6O7SiZr
 Framework group  C1[X(H6O7SiZr)]
 Deg. of freedom    39
 Full point group                 C1      NOp   1
 Largest Abelian subgroup         C1      NOp   1
 Largest concise Abelian subgroup C1      NOp   1
                         Standard orientation:                         
 ---------------------------------------------------------------------
 Center     Atomic      Atomic             Coordinates (Angstroms)
[...]
 ! A16   A(2,5,7)              116.1361         -DE/DX =    0.0                 !
 ! A17   A(2,6,8)              115.5155         -DE/DX =    0.0                 !
 ! A18   L(1,10,11,8,-1)       187.261          -DE/DX =    0.0                 !
 ! A19   L(1,12,13,7,-1)       191.0867         -DE/DX =    0.0                 !
 ! A20   L(1,14,15,4,-1)       175.3548         -DE/DX =    0.0                 !
 ! A21   L(1,10,11,8,-2)       173.1539         -DE/DX =    0.0                 !
 ! A22   L(1,12,13,7,-2)       183.4583         -DE/DX =    0.0                 !
 ! A23   L(1,14,15,4,-2)       179.3597         -DE/DX =    0.0                 !
 ! D1    D(10,1,3,2)          -134.118          -DE/DX =    0.0                 !
 ! D2    D(12,1,3,2)           106.6194         -DE/DX =    0.0                 !
 ! D3    D(14,1,3,2)           -13.8492         -DE/DX =    0.0                 !
 ! D4    D(4,2,3,1)            -29.8491         -DE/DX =    0.0                 !
 ! D5    D(5,2,3,1)           -153.3845         -DE/DX =    0.0                 !
 ! D6    D(6,2,3,1)             88.4234         -DE/DX =    0.0                 !
 ! D7    D(3,2,4,9)            165.9966         -DE/DX =    0.0                 !
 ! D8    D(5,2,4,9)            -72.9601         -DE/DX =    0.0                 !
 ! D9    D(6,2,4,9)             42.7423         -DE/DX =    0.0                 !
 ! D10   D(3,2,5,7)             35.528          -DE/DX =    0.0                 !
 ! D11   D(4,2,5,7)            -83.5744         -DE/DX =    0.0                 !
 ! D12   D(6,2,5,7)            159.5716         -DE/DX =    0.0                 !
 ! D13   D(3,2,6,8)             88.5701         -DE/DX =    0.0                 !
 ! D14   D(4,2,6,8)           -153.5567         -DE/DX =    0.0                 !
 ! D15   D(5,2,6,8)            -32.2367         -DE/DX =    0.0                 !
 --------------------------------------------------------------------------------
 GradGradGradGradGradGradGradGradGradGradGradGradGradGradGradGradGradGrad

                          Input orientation:                          
 ---------------------------------------------------------------------
 Center     Atomic      Atomic             Coordinates (Angstroms)
 Number     Number       Type             X           Y           Z
 ---------------------------------------------------------------------
      1         40           0        1.378132   -0.014093   -0.007541
      2         14           0       -2.186534   -0.055450    0.012734
      3          8           0       -0.574773   -0.284281    0.022097
      4          8           0       -2.451061    1.426978    0.694564
      5          8           0       -2.937675   -1.303862    0.812188
      6          8           0       -2.875792   -0.029061   -1.491203
      7          1           0       -2.469525   -1.662649    1.574074
      8          1           0       -3.151567   -0.885538   -1.836583
      9          1           0       -3.332664    1.796364    0.572557
     10          8           0        2.148547   -1.294165   -1.239426
     11          1           0        2.648989   -1.822939   -1.860461
     12          8           0        2.047968   -0.321719    1.784334
     13          1           0        2.522852   -0.358993    2.614456
     14          8           0        1.781313    1.784210   -0.579890
     15          1           0        1.910260    2.696677   -0.838191
 ---------------------------------------------------------------------
                    Distance matrix (angstroms):
                    1          2          3          4          5
     1  Zr   0.000000
     2  Si   3.564963   0.000000
     3  O    1.971729   1.627951   0.000000
     4  O    4.151187   1.653015   2.626990   0.000000
     5  O    4.578389   1.661888   2.692042   2.776349   0.000000
     6  O    4.505257   1.654569   2.765846   2.660455   2.633355
     7  H    4.474785   2.258529   2.810447   3.212425   0.963516
     8  H    4.962155   2.245063   3.233585   3.499306   2.690118
     9  H    5.079947   2.248606   3.498293   0.963616   3.134460
    10  O    1.936404   4.679236   3.166667   5.683426   5.484420
    11  H    2.884495   5.478609   4.037838   6.565106   6.214765
    12  O    1.937558   4.597877   3.160008   4.948414   5.173616
    13  H    2.881702   5.388823   4.039948   5.622765   5.827374
    14  O    1.929776   4.413543   3.192521   4.434505   5.808865
    15  H    2.884687   5.008193   3.975123   4.794017   6.498503
                    6          7          8          9         10
     6  O    0.000000
     7  H    3.497082   0.000000
     8  H    0.963791   3.563939   0.000000
     9  H    2.792850   3.703082   3.609619   0.000000
    10  O    5.187279   5.420161   5.349279   6.548154   0.000000
    11  H    5.820443   6.166109   5.875861   7.402641   0.956937
    12  O    5.920997   4.716995   6.361139   5.908120   3.177875
    13  H    6.790482   5.263623   7.231046   6.565210   3.983347
    14  O    5.080066   5.881328   5.748056   5.242236   3.169580
    15  H    5.546383   6.633646   6.281015   5.503547   4.018033
                   11         12         13         14         15
    11  H    0.000000
    12  O    3.987407   0.000000
    13  H    4.709981   0.957082   0.000000
    14  O    3.924825   3.177357   3.917530   0.000000
    15  H    4.692300   4.000915   4.651146   0.957049   0.000000
 Stoichiometry    H6O7SiZr
 Framework group  C1[X(H6O7SiZr)]
 Deg. of freedom    39
 Full point group                 C1      NOp   1
 Largest Abelian subgroup         C1      NOp   1
 Largest concise Abelian subgroup C1      NOp   1
                         Standard orientation:                         
 ---------------------------------------------------------------------
 Center     Atomic      Atomic             Coordinates (Angstroms)
 Number     Number       Type             X           Y           Z
 ---------------------------------------------------------------------
      1         40           0        1.380215   -0.012519   -0.010357
      2         14           0       -2.184661   -0.018882    0.013682
      3          8           0       -0.575247   -0.263836    0.016539
      4          8           0       -2.433686    1.452585    0.724477
      5          8           0       -2.947312   -1.275060    0.789732
      6          8           0       -2.875260    0.043531   -1.488575
      7          1           0       -2.481924   -1.653195    1.543914
      8          1           0       -3.159917   -0.803302   -1.850150
      9          1           0       -3.311703    1.833001    0.610788
     10          8           0        2.136517   -1.276022   -1.267826
     11          1           0        2.630998   -1.797583   -1.899642
     12          8           0        2.048909   -0.361498    1.774355
     13          1           0        2.524303   -0.419588    2.602988
     14          8           0        1.800642    1.792465   -0.548231
     15          1           0        1.938378    2.708449   -0.788950
 ---------------------------------------------------------------------
 Rotational constants (GHZ):           1.6297757           0.4751970           0.4725072

 **********************************************************************

            Population analysis using the SCF Density.

 **********************************************************************

 Orbital symmetries:
       Occupied  (A) (A) (A) (A) (A) (A) (A) (A) (A) (A) (A) (A)
                 (A) (A) (A) (A) (A) (A) (A) (A) (A) (A) (A) (A)
                 (A) (A) (A) (A) (A) (A) (A) (A) (A) (A) (A) (A)
                 (A) (A) (A) (A) (A) (A) (A) (A)
       Virtual   (A) (A) (A) (A) (A) (A) (A) (A) (A) (A) (A) (A)
                 (A) (A) (A) (A) (A) (A) (A) (A) (A) (A) (A) (A)
                 (A) (A) (A) (A) (A) (A) (A) (A) (A) (A) (A) (A)
                 (A) (A) (A) (A) (A) (A) (A) (A) (A) (A) (A) (A)
                 (A) (A) (A) (A) (A) (A) (A) (A) (A) (A) (A) (A)
                 (A) (A) (A) (A) (A) (A) (A) (A) (A) (A) (A) (A)
                 (A) (A) (A) (A) (A) (A) (A) (A) (A) (A) (A) (A)
                 (A) (A) (A) (A) (A) (A) (A) (A) (A) (A) (A) (A)
                 (A) (A) (A) (A) (A) (A) (A) (A) (A) (A) (A) (A)
                 (A) (A) (A) (A) (A) (A) (A) (A) (A) (A) (A) (A)
                 (A) (A) (A) (A) (A) (A) (A) (A) (A) (A) (A) (A)
                 (A) (A) (A) (A) (A) (A) (A) (A) (A) (A) (A) (A)
                 (A) (A) (A) (A) (A) (A) (A) (A) (A) (A) (A) (A)
                 (A) (A) (A) (A) (A) (A) (A) (A) (A) (A) (A) (A)
                 (A) (A) (A) (A) (A) (A) (A) (A) (A) (A) (A) (A)
                 (A) (A) (A) (A) (A) (A) (A) (A) (A) (A) (A) (A)
                 (A) (A) (A) (A) (A) (A) (A) (A) (A) (A) (A) (A)
                 (A) (A) (A) (A) (A) (A) (A) (A) (A) (A) (A) (A)
                 (A) (A) (A) (A) (A) (A)
 The electronic state is 1-A.
 Alpha  occ. eigenvalues --  -66.19953 -19.15198 -19.15152 -19.14922 -19.14397
 Alpha  occ. eigenvalues --  -19.14298 -19.14228 -19.13215  -5.34049  -3.70015
 Alpha  occ. eigenvalues --   -3.70009  -3.69970  -2.11228  -1.27534  -1.27432
 Alpha  occ. eigenvalues --   -1.27124  -1.02791  -0.99606  -0.99423  -0.96635
 Alpha  occ. eigenvalues --   -0.95431  -0.95373  -0.94120  -0.57469  -0.52276
 Alpha  occ. eigenvalues --   -0.51583  -0.50360  -0.49681  -0.49627  -0.45667
 Alpha  occ. eigenvalues --   -0.39594  -0.37775  -0.37270  -0.36062  -0.35637
 Alpha  occ. eigenvalues --   -0.34668  -0.34232  -0.33922  -0.32939  -0.32786
 Alpha  occ. eigenvalues --   -0.32052  -0.31298  -0.31214  -0.30674
 Alpha virt. eigenvalues --   -0.02927  -0.01298  -0.00732  -0.00563   0.00280
 Alpha virt. eigenvalues --    0.00373   0.01067   0.01262   0.01742   0.02326
 Alpha virt. eigenvalues --    0.02399   0.02959   0.03193   0.03294   0.03356
 Alpha virt. eigenvalues --    0.04261   0.04515   0.04618   0.05291   0.05763
 Alpha virt. eigenvalues --    0.06781   0.09106   0.09558   0.09821   0.10075
 Alpha virt. eigenvalues --    0.10149   0.11261   0.12474   0.13421   0.13766
 Alpha virt. eigenvalues --    0.14765   0.15413   0.15963   0.16345   0.17940
 Alpha virt. eigenvalues --    0.18318   0.18342   0.18993   0.19500   0.19924
 Alpha virt. eigenvalues --    0.20230   0.20378   0.21293   0.21681   0.22498
 Alpha virt. eigenvalues --    0.23186   0.24218   0.25079   0.26145   0.26521
 Alpha virt. eigenvalues --    0.27074   0.27490   0.27856   0.28407   0.28611
 Alpha virt. eigenvalues --    0.29142   0.29519   0.29604   0.29863   0.30702
 Alpha virt. eigenvalues --    0.31226   0.32928   0.34193   0.34607   0.35408
 Alpha virt. eigenvalues --    0.35604   0.36203   0.36994   0.37790   0.39025
 Alpha virt. eigenvalues --    0.41748   0.44015   0.44421   0.46623   0.47653
 Alpha virt. eigenvalues --    0.48251   0.49481   0.50727   0.51537   0.52649
 Alpha virt. eigenvalues --    0.55031   0.57236   0.58232   0.60111   0.60658
 Alpha virt. eigenvalues --    0.61515   0.62371   0.62860   0.64597   0.65202
 Alpha virt. eigenvalues --    0.66307   0.68163   0.69220   0.72494   0.73844
 Alpha virt. eigenvalues --    0.74638   0.76065   0.77259   0.78726   0.81293
 Alpha virt. eigenvalues --    0.85631   0.86154   0.96131   0.97777   0.98897
 Alpha virt. eigenvalues --    1.01717   1.02523   1.04636   1.05620   1.06500
 Alpha virt. eigenvalues --    1.07754   1.18631   1.19901   1.20489   1.21429
 Alpha virt. eigenvalues --    1.21561   1.22762   1.23425   1.23863   1.24424
 Alpha virt. eigenvalues --    1.25591   1.26431   1.28081   1.28623   1.28820
 Alpha virt. eigenvalues --    1.29102   1.30204   1.31163   1.31496   1.33043
 Alpha virt. eigenvalues --    1.33211   1.36706   1.42774   1.43573   1.45688
 Alpha virt. eigenvalues --    1.48887   1.52947   1.57255   1.59765   1.61076
 Alpha virt. eigenvalues --    1.62694   1.63104   1.63780   1.64417   1.67756
 Alpha virt. eigenvalues --    1.69375   1.71452   1.72311   1.72768   1.73062
 Alpha virt. eigenvalues --    1.73828   1.73998   1.75029   1.76661   1.77323
 Alpha virt. eigenvalues --    1.79320   1.80557   1.83107   1.83537   1.84451
 Alpha virt. eigenvalues --    1.86226   1.87865   1.90926   1.91220   1.92505
 Alpha virt. eigenvalues --    1.93143   1.94233   1.95061   1.95771   1.97247
 Alpha virt. eigenvalues --    1.99050   1.99485   2.00224   2.01791   2.06958
 Alpha virt. eigenvalues --    2.07451   2.08470   2.10075   2.14573   2.17422
 Alpha virt. eigenvalues --    2.20080   2.20309   2.21440   2.26551   2.31898
 Alpha virt. eigenvalues --    2.37830   2.41931   2.42395   2.43441   2.45144
 Alpha virt. eigenvalues --    2.50857   2.58521   2.59715   2.62521   2.63425
 Alpha virt. eigenvalues --    2.64808   2.66921   2.68331   2.68665   2.73078
 Alpha virt. eigenvalues --    2.78541   2.80439   2.80912   2.83771   2.87697
 Alpha virt. eigenvalues --    2.90351   2.91104   2.91449   2.92642   2.93954
 Alpha virt. eigenvalues --    3.01621   3.16553   3.46819   3.48371   3.51305
 Alpha virt. eigenvalues --    3.54405   3.57894   3.86022   4.13120   4.14824
 Alpha virt. eigenvalues --    4.18527  31.03075
          Condensed to atoms (all electrons):
               1          2          3          4          5          6
     1  Zr  10.437946   0.141024  -0.031624   0.003976  -0.076822  -0.042231
     2  Si   0.141024  12.924211  -0.694761  -0.070190  -0.134915   0.009598
     3  O   -0.031624  -0.694761   8.955447   0.111409   0.281660   0.100089
     4  O    0.003976  -0.070190   0.111409   8.564293  -0.030383   0.026651
     5  O   -0.076822  -0.134915   0.281660  -0.030383   8.531402   0.024240
     6  O   -0.042231   0.009598   0.100089   0.026651   0.024240   8.522320
     7  H   -0.003485   0.028692  -0.002125  -0.006488   0.242243   0.006569
     8  H    0.001380   0.060892  -0.021543   0.006612  -0.005646   0.232807
     9  H   -0.004562   0.036326   0.010386   0.224150  -0.005673  -0.005647
    10  O    0.032300  -0.013428  -0.025518   0.000645   0.000961   0.001047
    11  H   -0.087372   0.000748  -0.001111   0.000001   0.000002   0.000006
    12  O    0.037861  -0.013334  -0.026281   0.000074   0.001800   0.000253
    13  H   -0.086254   0.000763  -0.000869  -0.000001   0.000003   0.000001
    14  O    0.026273  -0.020087  -0.025192   0.002718   0.001014  -0.000676
    15  H   -0.090423   0.001015  -0.000595   0.000082   0.000003   0.000010
               7          8          9         10         11         12
     1  Zr  -0.003485   0.001380  -0.004562   0.032300  -0.087372   0.037861
     2  Si   0.028692   0.060892   0.036326  -0.013428   0.000748  -0.013334
     3  O   -0.002125  -0.021543   0.010386  -0.025518  -0.001111  -0.026281
     4  O   -0.006488   0.006612   0.224150   0.000645   0.000001   0.000074
     5  O    0.242243  -0.005646  -0.005673   0.000961   0.000002   0.001800
     6  O    0.006569   0.232807  -0.005647   0.001047   0.000006   0.000253
     7  H    0.370672   0.000056   0.000093   0.000016   0.000000  -0.000069
     8  H    0.000056   0.358672   0.000059  -0.000011   0.000000  -0.000007
     9  H    0.000093   0.000059   0.369520  -0.000001  -0.000000  -0.000012
    10  O    0.000016  -0.000011  -0.000001   8.606479   0.327158  -0.032290
    11  H    0.000000   0.000000  -0.000000   0.327158   0.382315  -0.000796
    12  O   -0.000069  -0.000007  -0.000012  -0.032290  -0.000796   8.600292
    13  H   -0.000000  -0.000000  -0.000000  -0.000763  -0.000008   0.325517
    14  O   -0.000007   0.000007  -0.000070  -0.034731  -0.001331  -0.037131
    15  H    0.000000  -0.000000  -0.000000  -0.000689  -0.000008  -0.000926
              13         14         15
     1  Zr  -0.086254   0.026273  -0.090423
     2  Si   0.000763  -0.020087   0.001015
     3  O   -0.000869  -0.025192  -0.000595
     4  O   -0.000001   0.002718   0.000082
     5  O    0.000003   0.001014   0.000003
     6  O    0.000001  -0.000676   0.000010
     7  H   -0.000000  -0.000007   0.000000
     8  H   -0.000000   0.000007  -0.000000
     9  H   -0.000000  -0.000070  -0.000000
    10  O   -0.000763  -0.034731  -0.000689
    11  H   -0.000008  -0.001331  -0.000008
    12  O    0.325517  -0.037131  -0.000926
    13  H    0.382235  -0.001480  -0.000011
    14  O   -0.001480   8.608314   0.331848
    15  H   -0.000011   0.331848   0.378961
 Mulliken charges:
               1
     1  Zr   1.742011
     2  Si   1.743447
     3  O   -0.629371
     4  O   -0.833549
     5  O   -0.829889
     6  O   -0.875038
     7  H    0.363831
     8  H    0.366723
     9  H    0.375431
    10  O   -0.861176
    11  H    0.380396
    12  O   -0.854951
    13  H    0.380868
    14  O   -0.849468
    15  H    0.380734
 Sum of Mulliken charges =  -0.00000
 Mulliken charges with hydrogens summed into heavy atoms:
               1
     1  Zr   1.742011
     2  Si   1.743447
     3  O   -0.629371
     4  O   -0.458118
     5  O   -0.466058
     6  O   -0.508315
    10  O   -0.480780
    12  O   -0.474083
    14  O   -0.468734
 Electronic spatial extent (au):  <R**2>=           2251.7235
 Charge=              0.0000 electrons
 Dipole moment (field-independent basis, Debye):
    X=              1.8532    Y=             -0.5954    Z=              0.2953  Tot=              1.9688
 Quadrupole moment (field-independent basis, Debye-Ang):
   XX=            -68.9335   YY=            -68.3189   ZZ=            -67.9643
   XY=             -0.3426   XZ=             -0.0271   YZ=              0.6074
 Traceless Quadrupole moment (field-independent basis, Debye-Ang):
   XX=             -0.5279   YY=              0.0866   ZZ=              0.4413
   XY=             -0.3426   XZ=             -0.0271   YZ=              0.6074
 Octapole moment (field-independent basis, Debye-Ang**2):
  XXX=             49.9448  YYY=             15.6475  ZZZ=             12.3889  XYY=             19.8708
  XXY=              8.5117  XXZ=             -1.2998  XZZ=             29.4045  YZZ=            -20.2545
  YYZ=            -10.6827  XYZ=             -3.9593
 Hexadecapole moment (field-independent basis, Debye-Ang**3):
 XXXX=          -1900.1545 YYYY=           -353.5770 ZZZZ=           -348.9641 XXXY=           -101.4533
 XXXZ=             19.7083 YYYX=             14.5727 YYYZ=            -16.2947 ZZZX=             27.6284
 ZZZY=              6.8936 XXYY=           -336.9518 XXZZ=           -323.1174 YYZZ=           -113.9269
 XXYZ=             52.0084 YYXZ=            -32.5253 ZZXY=             11.8596
 N-N= 6.318481786545D+02 E-N=-3.301240278352D+03  KE= 8.306840635754D+02
 1\1\GINC-GRA307\FOpt\RB3LYP\Gen\H6O7Si1Zr1\SARASHS\15-Jul-2020\0\\#n B
 3LYP/Gen Pseudo=cards EmpiricalDispersion=GD3 Opt=modredundant\\Title\
 \0,1\Zr,1.3781317024,-0.014093473,-0.0075411845\Si,-2.1865340824,-0.05
 54500629,0.0127339506\O,-0.5747731003,-0.2842812452,0.0220972985\O,-2.
 4510610117,1.4269780234,0.6945636252\O,-2.9376746275,-1.3038620391,0.8
 12188181\O,-2.8757920702,-0.0290605969,-1.4912028943\H,-2.4695245194,-
 1.6626488003,1.5740738108\H,-3.1515672867,-0.8855378714,-1.8365827159\
 H,-3.3326639196,1.7963640915,0.5725566821\O,2.1485471068,-1.2941645088
 ,-1.2394255778\H,2.6489891538,-1.8229385796,-1.8604607821\O,2.04796762
 04,-0.321719049,1.7843342233\H,2.5228515503,-0.3589933962,2.614455844\
 O,1.7813131248,1.784210354,-0.579889555\H,1.9102603593,2.6966771533,-0
 .8381909059\\Version=ES64L-G16RevB.01\State=1-A\HF=-867.1278508\RMSD=7
 .991e-09\RMSF=7.668e-06\Dipole=0.7312386,-0.2246887,0.1215105\Quadrupo
 le=-0.3873492,0.0769109,0.3104383,-0.2602607,-0.0204879,0.45589\PG=C01
  [X(H6O7Si1Zr1)]\\@


 THERE ARE PEOPLE SO ADDICTED TO EXAGERATING THEY
 CAN'T TELL THE TRUTH WITHOUT LYING. -- FORTUNE COOKIE
 Job cpu time:       0 days  1 hours 15 minutes  2.9 seconds.
 Elapsed time:       0 days  0 hours  5 minutes 19.6 seconds.
 File lengths (MBytes):  RWF=     48 Int=      0 D2E=      0 Chk=      6 Scr=      1
 Normal termination of Gaussian 16 at Wed Jul 15 14:37:03 2020.
