ITEM: TIMESTEP
0
ITEM: NUMBER OF ATOMS
18
ITEM: BOX BOUNDS pp pp pp
0.0000000000000000e+00 1.0000000000000000e+02
0.0000000000000000e+00 1.0000000000000000e+02
0.0000000000000000e+00 1.0000000000000000e+02
ITEM: ATOMS id type x y z q 
10 1 3.79885 0.940776 0.486072 -0.65436 
16 3 4.10121 0.852985 1.39702 0.352584 
3 1 96.3355 0.95414 0.747949 -0.647231 
8 3 96.6097 1.85239 0.96606 0.347052 
9 2 2.55137 99.9698 0.011075 1.16707 
12 1 1.65082 99.577 1.32529 -0.646218 
15 3 0.699544 99.4134 1.21343 0.392004 
5 1 98.5437 99.2277 0.974675 -0.675261 
6 3 98.2335 98.4082 1.37919 0.351468 
11 1 1.65586 0.838711 98.8994 -0.666452 
17 3 1.75232 1.79691 98.9661 0.341941 
1 2 97.4516 0.011041 99.9844 1.16781 
4 1 98.3845 0.996196 99.0549 -0.652268 
7 3 99.3076 0.747384 98.8884 0.381136 
13 1 3.03498 98.5796 99.2751 -0.621046 
14 3 3.47829 98.6617 98.4234 0.347788 
2 1 96.6031 98.8216 99.2252 -0.638931 
18 3 95.7172 99.0486 98.9203 0.35291 
ITEM: TIMESTEP
280
ITEM: NUMBER OF ATOMS
18
ITEM: BOX BOUNDS pp pp pp
0.0000000000000000e+00 1.0000000000000000e+02
0.0000000000000000e+00 1.0000000000000000e+02
0.0000000000000000e+00 1.0000000000000000e+02
ITEM: ATOMS id type x y z q 
10 1 3.18197 0.696429 0.174351 -0.674741 
16 3 3.19591 1.01511 1.07324 0.3524 
3 1 96.1409 1.25144 0.330564 -0.648049 
8 3 96.3565 1.952 0.942576 0.350725 
9 2 1.75741 99.9757 99.8079 1.17675 
12 1 0.814105 100.044 1.12199 -0.622916 
15 3 0.636644 98.9986 1.62107 0.451719 
5 1 0.416176 97.9477 2.14709 -0.566521 
6 3 99.8966 97.4819 1.51919 0.352247 
11 1 1.07057 0.823141 98.5756 -0.680247 
17 3 1.59704 1.59013 98.3312 0.351362 
1 2 97.3496 0.882287 99.3199 0.950265 
4 1 98.6482 1.84613 99.3075 -0.643054 
7 3 99.5067 1.38583 99.1568 0.423867 
13 1 2.07191 98.4268 99.3805 -0.636757 
14 3 3.00789 98.261 99.3013 0.355621 
2 1 97.4958 99.3336 98.8728 -0.635223 
18 3 96.7657 98.7859 99.1545 0.342553 
