ITEM: TIMESTEP
0
ITEM: NUMBER OF ATOMS
18
ITEM: BOX BOUNDS pp pp pp
0.0000000000000000e+00 1.0000000000000000e+02
0.0000000000000000e+00 1.0000000000000000e+02
0.0000000000000000e+00 1.0000000000000000e+02
ITEM: ATOMS id type x y z q 
11 1 1.61542 0.090083 1.24863 -0.665312 
17 3 1.9289 0.526726 2.04976 0.348299 
1 2 97.3 0.004194 0.013351 1.16715 
18 3 95.5926 1.42324 0.377511 0.352313 
12 1 3.84671 98.8226 0.096533 -0.647541 
4 1 98.2375 99.6905 1.32841 -0.647713 
7 3 99.184 99.8963 1.28216 0.383298 
8 3 96.4081 97.952 0.240271 0.348109 
9 2 2.69999 0.00407 99.9867 1.16713 
10 1 3.52385 1.43074 99.99 -0.638463 
16 3 4.40904 1.41718 99.6085 0.352269 
2 1 96.4779 1.43175 99.9961 -0.638443 
5 1 98.3836 0.075005 98.7495 -0.665264 
6 3 98.0691 0.500826 97.943 0.348197 
13 1 1.76359 99.6778 98.6739 -0.647773 
14 3 0.817034 99.8838 98.7179 0.383212 
15 3 3.58973 97.949 99.7799 0.348128 
3 1 96.1515 98.8234 99.917 -0.647602 
ITEM: TIMESTEP
218
ITEM: NUMBER OF ATOMS
18
ITEM: BOX BOUNDS pp pp pp
0.0000000000000000e+00 1.0000000000000000e+02
0.0000000000000000e+00 1.0000000000000000e+02
0.0000000000000000e+00 1.0000000000000000e+02
ITEM: ATOMS id type x y z q 
11 1 0.900755 0.639671 1.23927 -0.68294 
17 3 1.3172 0.522746 2.09845 0.348364 
1 2 97.3145 99.6891 1.06856 0.943082 
18 3 96.3799 1.56024 0.439561 0.342886 
12 1 2.93179 99.0517 0.644619 -0.675671 
4 1 98.7307 99.0003 1.43273 -0.647948 
7 3 99.5185 99.5653 1.24512 0.416399 
8 3 96.3182 97.8185 0.546838 0.347482 
9 2 1.869 100.125 100.012 1.18115 
10 1 2.73727 1.36729 99.392 -0.623991 
16 3 3.66437 1.30398 99.606 0.353966 
2 1 97.2347 1.27417 0.754474 -0.633717 
5 1 0.618204 0.565116 96.8879 -0.557497 
6 3 99.7337 0.864437 96.9768 0.34631 
13 1 0.994371 99.3556 98.8875 -0.620672 
14 3 0.837536 -0.027141 97.9034 0.454969 
15 3 2.80291 98.1763 0.288221 0.356732 
3 1 96.0952 98.7468 0.57604 -0.648909 
