ITEM: TIMESTEP
0
ITEM: NUMBER OF ATOMS
18
ITEM: BOX BOUNDS pp pp pp
0.0000000000000000e+00 1.0000000000000000e+02
0.0000000000000000e+00 1.0000000000000000e+02
0.0000000000000000e+00 1.0000000000000000e+02
ITEM: ATOMS id type x y z q 
13 1 2.74213 1.47882 0.694086 -0.624957 
14 3 3.10552 1.45552 1.58649 0.348411 
2 1 96.8094 1.17015 0.829564 -0.639815 
18 3 95.9329 0.950161 1.16494 0.352168 
11 1 1.51822 99.1448 1.10011 -0.679834 
17 3 1.7048 98.1972 1.08722 0.343897 
1 2 97.6091 99.981 0.016725 1.17232 
4 1 98.5477 98.9565 0.885072 -0.659697 
7 3 99.4838 99.1713 1.04798 0.397442 
9 2 2.3959 0.034859 99.9834 1.16864 
12 1 1.53932 0.31061 98.6176 -0.651417 
15 3 0.590425 0.522001 98.6968 0.406133 
5 1 98.6674 0.786731 99.0027 -0.68563 
6 3 98.3551 1.63523 98.6644 0.353908 
10 1 3.72345 99.1282 99.6123 -0.653852 
16 3 4.06431 99.1977 98.7134 0.352383 
3 1 96.4518 99.0827 99.2597 -0.647101 
8 3 96.6975 98.1799 99.0269 0.347008 
ITEM: TIMESTEP
340
ITEM: NUMBER OF ATOMS
18
ITEM: BOX BOUNDS pp pp pp
0.0000000000000000e+00 1.0000000000000000e+02
0.0000000000000000e+00 1.0000000000000000e+02
0.0000000000000000e+00 1.0000000000000000e+02
ITEM: ATOMS id type x y z q 
13 1 1.84798 1.61693 0.248494 -0.6878 
14 3 1.83671 1.81857 1.1832 0.357603 
2 1 97.5632 0.682186 1.17199 -0.638172 
18 3 97.0569 1.26077 0.604924 0.355486 
11 1 1.16405 99.28 1.36107 -0.705181 
17 3 1.71424 98.5305 1.60922 0.354334 
1 2 97.4296 99.1173 0.779792 0.956873 
4 1 98.7123 98.1496 0.961376 -0.642161 
7 3 99.5797 98.618 1.00051 0.419232 
9 2 1.70392 -0.00255174 -0.0161831 1.15649 
12 1 0.657769 99.7834 98.7568 -0.616013 
15 3 0.379738 0.869787 98.3985 0.443815 
5 1 0.20413 2.03596 98.168 -0.566369 
6 3 0.756751 2.4194 98.8456 0.390983 
10 1 3.13646 99.3195 99.5729 -0.648379 
16 3 3.19789 99.1505 98.6363 0.356484 
3 1 96.3553 98.7253 99.6346 -0.641703 
8 3 96.6423 98.0084 99.0724 0.35448 
