# 1.- Inizialization #######################
units real
  #mass = grams/mole
  #distance = Angstroms
  #time = femtoseconds
  #energy = kcal/mol
  #velocity = Angstroms/femtosecond
  #force = kcal/mol.Angstrom
  #torque = kcal/mole
  #temperature = degrees K
  #pressure = atmospheres (0.1013 GPa)
  #dynamic viscosity = Poise
  #charge = multiple of electron charge (+1.0 is a proton)
  #dipole = charge*Angstroms
  #electric field = volts/Angstrom
dimension 3
processors * * *
##
boundary p p p
atom_style charge

# 2.- Atom definition ######################

atom_modify map hash
read_data   /home/sarashs/Python-forcefield-optimizer/tests/Zr_Si_forcefield/2SiOH4_3_95_eq.data
  orthogonal box = (0 0 0) to (100 100 100)
  1 by 1 by 1 MPI processor grid
  reading atoms ...
  18 atoms
  read_data CPU = 0.0009557 secs

# 3.- Force-Field ##########################

pair_style reax/c NULL
pair_coeff * * /home/sarashs/Python-forcefield-optimizer/tests/Zr_Si_forcefield/annealer_0.reax O  Si H
WARNING: VdWaals-parameters for element SI indicate inner wall+shielding, but earlier atoms indicate different vdWaals-method. This may cause division-by-zero errors. Keeping vdWaals-setting for earlier atoms. (src/USER-REAXC/reaxc_ffield.cpp:259)
WARNING: Changed valency_val to valency_boc for X (src/USER-REAXC/reaxc_ffield.cpp:315)
fix 99 all qeq/reax 1 0.0 10.0 1.0e-6 reax/c
neighbor        2.0 bin
neigh_modify    every 10 check yes

## 4.- MD & relax parameters ################

dump DUMP2 all custom 1000000 /home/sarashs/Python-forcefield-optimizer/tests/Zr_Si_forcefield/2SiOH4_3_95_eqannealer_0.lammpstrj id type x y z q #this size
thermo_style custom step etotal ke pe temp press pxx pyy pzz
thermo 1000000
fix holdem all restrain bond 1 5 2000 2000 3.95
fix_modify holdem energy yes
min_style cg
minimize 1.0e-8 0.0 200000 2000000
WARNING: Using 'neigh_modify every 1 delay 0 check yes' setting during minimization (src/min.cpp:190)
Neighbor list info ...
  update every 1 steps, delay 0 steps, check yes
  max neighbors/atom: 2000, page size: 100000
  master list distance cutoff = 12
  ghost atom cutoff = 12
  binsize = 6, bins = 17 17 17
  2 neighbor lists, perpetual/occasional/extra = 2 0 0
  (1) pair reax/c, perpetual
      attributes: half, newton off, ghost
      pair build: half/bin/newtoff/ghost
      stencil: half/ghost/bin/3d/newtoff
      bin: standard
  (2) fix qeq/reax, perpetual, copy from (1)
      attributes: half, newton off, ghost
      pair build: copy
      stencil: none
      bin: none
Per MPI rank memory allocation (min/avg/max) = 11.52 | 11.52 | 11.52 Mbytes
Step TotEng KinEng PotEng Temp Press Pxx Pyy Pzz 
       0    8545.5205            0    8545.5205            0    -5.984953   -7.3564909   -5.3993949   -5.1989731 
     470   -1817.0112            0   -1817.0112            0   -0.1497435  -0.16827288  -0.11475396  -0.16620367 
Loop time of 0.286495 on 1 procs for 470 steps with 18 atoms

98.2% CPU use with 1 MPI tasks x 1 OpenMP threads

Minimization stats:
  Stopping criterion = energy tolerance
  Energy initial, next-to-last, final = 
         8545.52053988     -1817.01118285     -1817.01120418
  Force two-norm initial, final = 12905.3 0.882419
  Force max component initial, final = 7614.96 0.318232
  Final line search alpha, max atom move = 0.000958277 0.000304954
  Iterations, force evaluations = 470 999

MPI task timing breakdown:
Section |  min time  |  avg time  |  max time  |%varavg| %total
---------------------------------------------------------------
Pair    | 0.24493    | 0.24493    | 0.24493    |   0.0 | 85.49
Neigh   | 0.0003033  | 0.0003033  | 0.0003033  |   0.0 |  0.11
Comm    | 0.0030619  | 0.0030619  | 0.0030619  |   0.0 |  1.07
Output  | 0          | 0          | 0          |   0.0 |  0.00
Modify  | 0.033595   | 0.033595   | 0.033595   |   0.0 | 11.73
Other   |            | 0.004608   |            |       |  1.61

Nlocal:    18 ave 18 max 18 min
Histogram: 1 0 0 0 0 0 0 0 0 0
Nghost:    126 ave 126 max 126 min
Histogram: 1 0 0 0 0 0 0 0 0 0
Neighs:    287 ave 287 max 287 min
Histogram: 1 0 0 0 0 0 0 0 0 0

Total # of neighbors = 287
Ave neighs/atom = 15.9444
Neighbor list builds = 4
Dangerous builds = 0
undump DUMP2
unfix holdem
WARNING: lammps_gather_atoms: unknown property name (src/library.cpp:850)

Please see the log.cite file for references relevant to this simulation

Total wall time: 0:00:00
