ITEM: TIMESTEP
0
ITEM: NUMBER OF ATOMS
18
ITEM: BOX BOUNDS pp pp pp
0.0000000000000000e+00 1.0000000000000000e+02
0.0000000000000000e+00 1.0000000000000000e+02
0.0000000000000000e+00 1.0000000000000000e+02
ITEM: ATOMS id type x y z q 
11 1 1.61542 0.090083 1.24863 -0.665312 
17 3 1.9289 0.526726 2.04976 0.348299 
1 2 97.3 0.004194 0.013351 1.16715 
18 3 95.5926 1.42324 0.377511 0.352313 
12 1 3.84671 98.8226 0.096533 -0.647541 
4 1 98.2375 99.6905 1.32841 -0.647713 
7 3 99.184 99.8963 1.28216 0.383298 
8 3 96.4081 97.952 0.240271 0.348109 
9 2 2.69999 0.00407 99.9867 1.16713 
10 1 3.52385 1.43074 99.99 -0.638463 
16 3 4.40904 1.41718 99.6085 0.352269 
2 1 96.4779 1.43175 99.9961 -0.638443 
5 1 98.3836 0.075005 98.7495 -0.665264 
6 3 98.0691 0.500826 97.943 0.348197 
13 1 1.76359 99.6778 98.6739 -0.647773 
14 3 0.817034 99.8838 98.7179 0.383212 
15 3 3.58973 97.949 99.7799 0.348128 
3 1 96.1515 98.8234 99.917 -0.647602 
ITEM: TIMESTEP
89
ITEM: NUMBER OF ATOMS
18
ITEM: BOX BOUNDS pp pp pp
0.0000000000000000e+00 1.0000000000000000e+02
0.0000000000000000e+00 1.0000000000000000e+02
0.0000000000000000e+00 1.0000000000000000e+02
ITEM: ATOMS id type x y z q 
11 1 1.62904 0.0541221 1.25032 -0.669484 
17 3 1.94642 0.564333 1.99075 0.354689 
1 2 97.3003 0.00301298 -0.010686 1.17432 
18 3 95.621 1.35954 0.408891 0.353657 
12 1 3.78923 98.8009 0.234995 -0.650447 
4 1 98.1174 99.7215 1.38067 -0.653738 
7 3 99.0596 99.8669 1.31229 0.380667 
8 3 96.3846 98.0348 0.319961 0.353583 
9 2 2.69978 0.00343074 100.01 1.17434 
10 1 3.4983 1.43158 99.9296 -0.643239 
16 3 4.38099 1.35341 99.5778 0.353666 
2 1 96.5036 1.43293 100.056 -0.643218 
5 1 98.3702 0.0393351 98.7482 -0.669446 
6 3 98.0521 0.540238 98.0017 0.354665 
13 1 1.88315 99.7084 98.6215 -0.65373 
14 3 0.940883 99.8545 98.6882 0.380625 
15 3 3.61302 98.0306 99.7009 0.353573 
3 1 96.2092 98.7996 99.7779 -0.650479 
