ITEM: TIMESTEP
0
ITEM: NUMBER OF ATOMS
18
ITEM: BOX BOUNDS pp pp pp
0.0000000000000000e+00 1.0000000000000000e+02
0.0000000000000000e+00 1.0000000000000000e+02
0.0000000000000000e+00 1.0000000000000000e+02
ITEM: ATOMS id type x y z q 
17 3 1.84352 2.22174 0.068043 0.351881 
1 2 98.028 0.032138 0.021627 1.1633 
3 1 96.3848 0.077406 0.015089 -0.645604 
8 3 95.9676 0.897309 0.304156 0.353167 
12 1 1.56872 99.5222 1.50208 -0.667921 
15 3 0.616214 99.4524 1.68802 0.392703 
16 3 4.11212 99.4358 0.42672 0.35496 
5 1 98.675 99.3781 1.41067 -0.685299 
6 3 98.3804 98.4844 1.62885 0.345591 
10 1 3.61434 0.06506 99.8931 -0.620432 
11 1 1.37606 1.499 99.63 -0.685325 
4 1 98.6145 1.53646 99.8368 -0.665116 
7 3 99.5834 1.65559 99.7265 0.409604 
9 2 1.97692 99.9658 99.9692 1.17872 
13 1 1.38413 98.9705 98.8158 -0.636005 
14 3 0.424618 98.8278 98.7443 0.399285 
2 1 98.5015 98.9557 98.8405 -0.692662 
18 3 98.0502 99.0175 97.9895 0.349152 
ITEM: TIMESTEP
470
ITEM: NUMBER OF ATOMS
18
ITEM: BOX BOUNDS pp pp pp
0.0000000000000000e+00 1.0000000000000000e+02
0.0000000000000000e+00 1.0000000000000000e+02
0.0000000000000000e+00 1.0000000000000000e+02
ITEM: ATOMS id type x y z q 
17 3 1.68031 2.18401 0.360205 0.36563 
1 2 97.6413 0.499395 99.6589 0.927142 
3 1 96.1518 0.630439 99.0393 -0.636644 
8 3 95.9865 1.47276 98.6204 0.355401 
12 1 1.9794 98.9935 1.34093 -0.591377 
15 3 0.922975 98.6331 1.71045 0.452277 
16 3 4.00568 99.7405 99.862 0.36913 
5 1 99.8435 98.2716 2.06451 -0.56174 
6 3 99.2743 98.4842 1.33397 0.382363 
10 1 3.35888 0.367925 99.5493 -0.633278 
11 1 1.13561 1.41892 0.56657 -0.707281 
4 1 98.6512 1.74509 99.458 -0.648314 
7 3 99.5684 1.58588 99.7791 0.402656 
9 2 1.85285 0.0178784 0.0907177 1.17698 
13 1 0.924286 99.3323 98.9322 -0.643703 
14 3 99.9843 99.2385 99.1771 0.384041 
2 1 98.3032 99.0153 99.7539 -0.74569 
18 3 97.8376 98.3638 99.2134 0.352407 
