ITEM: TIMESTEP
0
ITEM: NUMBER OF ATOMS
18
ITEM: BOX BOUNDS pp pp pp
0.0000000000000000e+00 1.0000000000000000e+02
0.0000000000000000e+00 1.0000000000000000e+02
0.0000000000000000e+00 1.0000000000000000e+02
ITEM: ATOMS id type x y z q 
17 3 1.84352 2.22174 0.068043 0.351881 
1 2 98.028 0.032138 0.021627 1.1633 
3 1 96.3848 0.077406 0.015089 -0.645604 
8 3 95.9676 0.897309 0.304156 0.353167 
12 1 1.56872 99.5222 1.50208 -0.667921 
15 3 0.616214 99.4524 1.68802 0.392703 
16 3 4.11212 99.4358 0.42672 0.35496 
5 1 98.675 99.3781 1.41067 -0.685299 
6 3 98.3804 98.4844 1.62885 0.345591 
10 1 3.61434 0.06506 99.8931 -0.620432 
11 1 1.37606 1.499 99.63 -0.685325 
4 1 98.6145 1.53646 99.8368 -0.665116 
7 3 99.5834 1.65559 99.7265 0.409604 
9 2 1.97692 99.9658 99.9692 1.17872 
13 1 1.38413 98.9705 98.8158 -0.636005 
14 3 0.424618 98.8278 98.7443 0.399285 
2 1 98.5015 98.9557 98.8405 -0.692662 
18 3 98.0502 99.0175 97.9895 0.349152 
ITEM: TIMESTEP
91
ITEM: NUMBER OF ATOMS
18
ITEM: BOX BOUNDS pp pp pp
0.0000000000000000e+00 1.0000000000000000e+02
0.0000000000000000e+00 1.0000000000000000e+02
0.0000000000000000e+00 1.0000000000000000e+02
ITEM: ATOMS id type x y z q 
17 3 2.13071 2.23805 -0.274439 0.37015 
1 2 98.0808 -0.0712446 0.0818343 1.1545 
3 1 96.4445 -0.0280999 0.0907547 -0.641892 
8 3 96.1142 0.86055 0.19184 0.360836 
12 1 1.38413 99.3866 1.34531 -0.656804 
15 3 0.405894 99.4347 1.44717 0.405249 
16 3 3.9296 99.3375 0.497724 0.363689 
5 1 98.6558 99.4186 1.53649 -0.697787 
6 3 98.3851 98.5195 1.74483 0.354682 
10 1 3.57592 0.0489757 99.9707 -0.635188 
11 1 1.41503 1.6204 99.8828 -0.706723 
4 1 98.6356 1.42909 99.7455 -0.66511 
7 3 99.6001 1.5299 99.8122 0.412644 
9 2 1.93827 100.067 99.9662 1.17668 
13 1 1.3165 99.2297 98.7059 -0.636133 
14 3 0.34559 99.0905 98.7624 0.400894 
2 1 98.6027 98.8892 98.92 -0.713558 
18 3 98.1416 98.9946 98.0837 0.353867 
