ITEM: TIMESTEP
0
ITEM: NUMBER OF ATOMS
18
ITEM: BOX BOUNDS pp pp pp
0.0000000000000000e+00 1.0000000000000000e+02
0.0000000000000000e+00 1.0000000000000000e+02
0.0000000000000000e+00 1.0000000000000000e+02
ITEM: ATOMS id type x y z q 
9 2 1.7969 0.035907 0.015445 1.17466 
13 1 1.15966 1.23895 0.924715 -0.655588 
14 3 0.396511 1.02923 1.48968 0.408646 
2 1 98.5854 0.511472 1.48697 -0.702018 
18 3 98.0173 0.205915 2.20405 0.348359 
10 1 3.43339 99.9116 0.184863 -0.632882 
11 1 1.1992 98.5767 0.591557 -0.706281 
17 3 1.86717 97.8825 0.654354 0.355503 
12 1 1.51398 0.249091 98.4132 -0.660827 
15 3 0.617917 0.562425 98.2021 0.401524 
16 3 3.96526 0.305887 99.4847 0.35643 
5 1 98.9111 1.08312 98.9433 -0.682193 
6 3 99.0926 1.94847 99.3342 0.360209 
1 2 98.1978 99.9798 99.9554 1.17477 
3 1 96.5538 99.997 99.8496 -0.636872 
4 1 98.6899 98.4719 99.5857 -0.667659 
7 3 99.5982 98.237 99.8651 0.407872 
8 3 96.1482 99.2898 99.3351 0.356339 
ITEM: TIMESTEP
107
ITEM: NUMBER OF ATOMS
18
ITEM: BOX BOUNDS pp pp pp
0.0000000000000000e+00 1.0000000000000000e+02
0.0000000000000000e+00 1.0000000000000000e+02
0.0000000000000000e+00 1.0000000000000000e+02
ITEM: ATOMS id type x y z q 
9 2 1.84622 -0.0817134 0.0557708 1.18166 
13 1 1.32825 1.1196 1.03795 -0.651144 
14 3 0.46772 0.950881 1.44157 0.403787 
2 1 98.6465 0.386451 1.49118 -0.714979 
18 3 97.8896 0.395799 2.07721 0.359675 
10 1 3.48714 99.8658 0.105499 -0.633214 
11 1 1.32165 98.4506 0.567472 -0.706613 
17 3 2.04315 97.8647 0.797498 0.367693 
12 1 1.43728 0.214333 98.5 -0.659477 
15 3 0.538177 0.546409 98.3794 0.408438 
16 3 3.89615 0.446045 99.4692 0.363917 
5 1 98.8148 1.1352 98.8961 -0.697924 
6 3 98.6713 2.0378 99.1811 0.350025 
1 2 98.2453 100.01 99.9457 1.16386 
3 1 96.6054 100.055 99.881 -0.649368 
4 1 98.6912 98.4887 99.5428 -0.659067 
7 3 99.5712 98.2398 99.8507 0.409222 
8 3 96.2433 99.3912 99.2998 0.363504 
