ITEM: TIMESTEP
0
ITEM: NUMBER OF ATOMS
18
ITEM: BOX BOUNDS pp pp pp
0.0000000000000000e+00 1.0000000000000000e+02
0.0000000000000000e+00 1.0000000000000000e+02
0.0000000000000000e+00 1.0000000000000000e+02
ITEM: ATOMS id type x y z q 
17 3 1.85826 2.22061 0.064557 0.352965 
1 2 98.0526 0.034028 0.022933 1.16427 
3 1 96.4089 0.084561 0.017505 -0.645176 
8 3 95.9952 0.899117 0.325912 0.353195 
12 1 1.54592 99.5148 1.5 -0.668747 
15 3 0.594761 99.4235 1.68442 0.395788 
16 3 4.08447 99.4247 0.427391 0.354982 
5 1 98.6886 99.3348 1.3946 -0.687857 
6 3 98.3885 98.4362 1.58324 0.346023 
10 1 3.59037 0.059415 99.8969 -0.620267 
11 1 1.36957 1.50614 99.6362 -0.687991 
4 1 98.6395 1.54107 99.8817 -0.666817 
7 3 99.6074 1.66732 99.7629 0.411902 
9 2 1.95165 99.9639 99.9695 1.17946 
13 1 1.36227 98.9771 98.8089 -0.637993 
14 3 0.402633 98.844 98.7191 0.402288 
2 1 98.5138 98.9869 98.8108 -0.695464 
18 3 98.0563 99.0743 97.9653 0.349436 
ITEM: TIMESTEP
225
ITEM: NUMBER OF ATOMS
18
ITEM: BOX BOUNDS pp pp pp
0.0000000000000000e+00 1.0000000000000000e+02
0.0000000000000000e+00 1.0000000000000000e+02
0.0000000000000000e+00 1.0000000000000000e+02
ITEM: ATOMS id type x y z q 
17 3 2.03757 2.25525 99.7913 0.37155 
1 2 97.6988 0.508974 99.2397 0.924941 
3 1 96.0866 0.570108 99.3649 -0.637186 
8 3 95.7761 1.26499 -0.0583716 0.356143 
12 1 1.59138 99.5268 1.59518 -0.598956 
15 3 0.632934 98.8515 1.64019 0.449583 
16 3 3.97934 99.4905 0.484996 0.367168 
5 1 99.6478 98.1798 1.68489 -0.563031 
6 3 99.1547 98.4463 0.91426 0.377683 
10 1 3.53994 0.121204 99.9202 -0.632432 
11 1 1.33597 1.61745 99.9345 -0.701109 
4 1 98.5491 1.78874 99.74 -0.648499 
7 3 99.5134 1.67967 99.8189 0.411218 
9 2 1.91235 100.09 0.109803 1.18017 
13 1 1.19585 99.1289 98.9969 -0.645751 
14 3 0.229752 99.0969 99.0539 0.38769 
2 1 98.4027 99.0417 99.2772 -0.747593 
18 3 97.8265 98.334 98.9634 0.348417 
