ITEM: TIMESTEP
0
ITEM: NUMBER OF ATOMS
18
ITEM: BOX BOUNDS pp pp pp
0.0000000000000000e+00 1.0000000000000000e+02
0.0000000000000000e+00 1.0000000000000000e+02
0.0000000000000000e+00 1.0000000000000000e+02
ITEM: ATOMS id type x y z q 
13 1 2.74213 1.47882 0.694086 -0.624957 
14 3 3.10552 1.45552 1.58649 0.348411 
2 1 96.8094 1.17015 0.829564 -0.639815 
18 3 95.9329 0.950161 1.16494 0.352168 
11 1 1.51822 99.1448 1.10011 -0.679834 
17 3 1.7048 98.1972 1.08722 0.343897 
1 2 97.6091 99.981 0.016725 1.17232 
4 1 98.5477 98.9565 0.885072 -0.659697 
7 3 99.4838 99.1713 1.04798 0.397442 
9 2 2.3959 0.034859 99.9834 1.16864 
12 1 1.53932 0.31061 98.6176 -0.651417 
15 3 0.590425 0.522001 98.6968 0.406133 
5 1 98.6674 0.786731 99.0027 -0.68563 
6 3 98.3551 1.63523 98.6644 0.353908 
10 1 3.72345 99.1282 99.6123 -0.653852 
16 3 4.06431 99.1977 98.7134 0.352383 
3 1 96.4518 99.0827 99.2597 -0.647101 
8 3 96.6975 98.1799 99.0269 0.347008 
ITEM: TIMESTEP
172
ITEM: NUMBER OF ATOMS
18
ITEM: BOX BOUNDS pp pp pp
0.0000000000000000e+00 1.0000000000000000e+02
0.0000000000000000e+00 1.0000000000000000e+02
0.0000000000000000e+00 1.0000000000000000e+02
ITEM: ATOMS id type x y z q 
13 1 3.05606 1.32215 0.685467 -0.632664 
14 3 2.74669 1.45071 1.5784 0.350061 
2 1 96.8541 1.10975 0.912678 -0.645303 
18 3 95.9748 0.840212 1.16448 0.355328 
11 1 1.44882 99.2334 1.03674 -0.714279 
17 3 1.77332 98.3643 1.27113 0.353621 
1 2 97.6322 100.01 -0.0188187 1.17591 
4 1 98.5445 98.9999 0.893562 -0.65964 
7 3 99.4923 99.1931 0.914385 0.401704 
9 2 2.43033 -0.00677673 99.9606 1.17766 
12 1 1.53043 0.411963 98.6571 -0.64531 
15 3 0.579234 0.501559 98.8053 0.405557 
5 1 98.6376 0.795296 98.9452 -0.695216 
6 3 98.2919 1.63916 98.659 0.3574 
10 1 3.62162 98.9651 99.5074 -0.648932 
16 3 4.07174 99.2378 98.7123 0.361721 
3 1 96.5233 99.1233 99.1655 -0.650881 
8 3 96.7297 98.1926 99.139 0.353259 
