ITEM: TIMESTEP
0
ITEM: NUMBER OF ATOMS
18
ITEM: BOX BOUNDS pp pp pp
0.0000000000000000e+00 1.0000000000000000e+02
0.0000000000000000e+00 1.0000000000000000e+02
0.0000000000000000e+00 1.0000000000000000e+02
ITEM: ATOMS id type x y z q 
17 3 1.82404 2.22354 0.031305 0.349682 
1 2 97.9533 0.02672 0.019213 1.16093 
3 1 96.3114 0.068962 0.011672 -0.646485 
8 3 95.891 0.898837 0.265582 0.353211 
12 1 1.64496 99.5599 1.51514 -0.664624 
15 3 0.692143 99.5235 1.70433 0.383138 
16 3 4.19773 99.4716 0.418799 0.355075 
5 1 98.6241 99.4689 1.43876 -0.677029 
6 3 98.3484 98.5861 1.71675 0.344422 
10 1 3.68611 0.08547 99.8803 -0.621444 
11 1 1.40057 1.47298 99.5957 -0.678507 
4 1 98.545 1.5204 99.7436 -0.660448 
7 3 99.5147 1.62157 99.6469 0.402507 
9 2 2.05263 99.971 99.9695 1.17662 
13 1 1.45533 98.9333 98.8511 -0.631456 
14 3 0.496166 98.7844 98.8064 0.390392 
2 1 98.45 98.8928 98.9042 -0.684281 
18 3 98.012 98.9008 98.0443 0.348296 
ITEM: TIMESTEP
205
ITEM: NUMBER OF ATOMS
18
ITEM: BOX BOUNDS pp pp pp
0.0000000000000000e+00 1.0000000000000000e+02
0.0000000000000000e+00 1.0000000000000000e+02
0.0000000000000000e+00 1.0000000000000000e+02
ITEM: ATOMS id type x y z q 
17 3 2.11444 2.22509 -0.347629 0.363692 
1 2 97.9997 -0.0532858 0.045473 1.16017 
3 1 96.3654 -0.103394 0.0644558 -0.671711 
8 3 95.9652 0.761478 0.0179909 0.353583 
12 1 1.53976 99.4418 1.41485 -0.64923 
15 3 0.574908 99.4011 1.49312 0.405639 
16 3 4.14937 99.3396 0.31453 0.359981 
5 1 98.61 99.3285 1.44106 -0.694373 
6 3 97.9408 98.9429 2.00446 0.353539 
10 1 3.72961 0.133744 99.9949 -0.643157 
11 1 1.45029 1.55484 99.8042 -0.698397 
4 1 98.5194 1.49346 99.8907 -0.655156 
7 3 99.4829 1.58199 99.8591 0.406588 
9 2 2.09517 100.057 100 1.18567 
13 1 1.51998 99.0986 98.7996 -0.64039 
14 3 0.554249 99.0643 98.7295 0.404929 
2 1 98.5873 99.0751 98.7818 -0.69507 
18 3 97.9011 98.6684 98.2552 0.353689 
