ITEM: TIMESTEP
0
ITEM: NUMBER OF ATOMS
18
ITEM: BOX BOUNDS pp pp pp
0.0000000000000000e+00 1.0000000000000000e+02
0.0000000000000000e+00 1.0000000000000000e+02
0.0000000000000000e+00 1.0000000000000000e+02
ITEM: ATOMS id type x y z q 
1 2 97.9036 0.02371 0.018312 1.1596 
3 1 96.2624 0.079406 0.0145 -0.646554 
8 3 95.8491 0.918631 0.248662 0.35342 
12 1 1.70301 99.596 1.52764 -0.662761 
15 3 0.751796 99.5709 1.72279 0.37695 
16 3 4.25566 99.5066 0.420236 0.355256 
5 1 98.5849 99.5182 1.45197 -0.671797 
6 3 98.3204 98.642 1.75969 0.343898 
10 1 3.73392 0.100726 99.8694 -0.621848 
11 1 1.41964 1.45105 99.5614 -0.67524 
17 3 1.82145 2.22215 99.9811 0.348642 
4 1 98.5068 1.50474 99.6886 -0.658001 
7 3 99.4766 1.59329 99.5966 0.398479 
9 2 2.10306 99.9737 99.9698 1.17551 
13 1 1.50897 98.8978 98.8834 -0.628861 
14 3 0.5505 98.7494 98.8436 0.384032 
2 1 98.3958 98.8525 98.9421 -0.678595 
18 3 97.9574 98.8301 98.0828 0.34787 
ITEM: TIMESTEP
254
ITEM: NUMBER OF ATOMS
18
ITEM: BOX BOUNDS pp pp pp
0.0000000000000000e+00 1.0000000000000000e+02
0.0000000000000000e+00 1.0000000000000000e+02
0.0000000000000000e+00 1.0000000000000000e+02
ITEM: ATOMS id type x y z q 
1 2 97.7019 0.543691 99.0074 0.930435 
3 1 96.2672 0.103193 99.612 -0.641306 
8 3 96.0068 0.607308 0.380935 0.357617 
12 1 1.58154 100.189 1.83053 -0.596253 
15 3 0.677999 99.4866 2.1132 0.446708 
16 3 3.75607 99.3384 0.591057 0.360353 
5 1 99.7557 98.716 2.18278 -0.56005 
6 3 99.7577 98.3892 1.27755 0.381542 
10 1 3.28052 99.7108 99.8532 -0.633625 
11 1 1.27132 1.44883 99.4839 -0.705006 
17 3 1.98832 2.08033 99.4051 0.366709 
4 1 98.5139 1.7206 99.7623 -0.64577 
7 3 99.4854 1.65306 99.6975 0.412939 
9 2 1.71995 100.049 0.214186 1.16993 
13 1 0.693617 98.847 99.7523 -0.698244 
14 3 -0.000305214 99.1406 99.1108 0.403614 
2 1 98.5505 99.4279 98.1847 -0.697051 
18 3 98.0969 98.5794 98.123 0.347455 
