ITEM: TIMESTEP
0
ITEM: NUMBER OF ATOMS
18
ITEM: BOX BOUNDS pp pp pp
0.0000000000000000e+00 1.0000000000000000e+02
0.0000000000000000e+00 1.0000000000000000e+02
0.0000000000000000e+00 1.0000000000000000e+02
ITEM: ATOMS id type x y z q 
17 3 1.83521 2.2226 0.058974 0.351121 
1 2 98.003 0.030271 0.020754 1.16246 
3 1 96.3603 0.07156 0.013221 -0.646067 
8 3 95.9403 0.894451 0.289402 0.353143 
12 1 1.59356 99.5314 1.50545 -0.666662 
15 3 0.640599 99.4746 1.69205 0.389544 
16 3 4.1414 99.4485 0.422413 0.355004 
5 1 98.6593 99.4092 1.42077 -0.682402 
6 3 98.3709 98.519 1.66008 0.345149 
10 1 3.63813 0.073692 99.8891 -0.62098 
11 1 1.38197 1.49056 99.6216 -0.683111 
4 1 98.5897 1.53242 99.8057 -0.663473 
7 3 99.5588 1.64556 99.7008 0.407287 
9 2 2.00222 99.9676 99.9693 1.17807 
13 1 1.40803 98.9595 98.8259 -0.634448 
14 3 0.448445 98.8154 98.7631 0.396441 
2 1 98.4878 98.9355 98.8615 -0.689849 
18 3 98.0413 98.9786 98.0068 0.348764 
ITEM: TIMESTEP
189
ITEM: NUMBER OF ATOMS
18
ITEM: BOX BOUNDS pp pp pp
0.0000000000000000e+00 1.0000000000000000e+02
0.0000000000000000e+00 1.0000000000000000e+02
0.0000000000000000e+00 1.0000000000000000e+02
ITEM: ATOMS id type x y z q 
17 3 2.11587 2.21958 -0.332094 0.365272 
1 2 98.0491 -0.0477458 0.0384211 1.16184 
3 1 96.413 -0.0954388 0.0598385 -0.669775 
8 3 96.0178 0.772985 0.0682881 0.354946 
12 1 1.52182 99.4416 1.43265 -0.65164 
15 3 0.561056 99.3694 1.51958 0.407297 
16 3 4.09888 99.3304 0.323317 0.361282 
5 1 98.6303 99.26 1.40946 -0.698946 
6 3 97.9528 98.8306 1.93027 0.354977 
10 1 3.68308 0.124847 99.9996 -0.64044 
11 1 1.43533 1.56101 99.8017 -0.701991 
4 1 98.541 1.51192 99.9553 -0.658225 
7 3 99.5001 1.62117 99.9007 0.408252 
9 2 2.04689 100.051 100.006 1.18691 
13 1 1.49816 99.0835 98.8033 -0.642783 
14 3 0.536966 99.0654 98.6944 0.406974 
2 1 98.6004 99.1344 98.7255 -0.699292 
18 3 97.8983 98.7659 98.1907 0.355343 
