ITEM: TIMESTEP
0
ITEM: NUMBER OF ATOMS
18
ITEM: BOX BOUNDS pp pp pp
0.0000000000000000e+00 1.0000000000000000e+02
0.0000000000000000e+00 1.0000000000000000e+02
0.0000000000000000e+00 1.0000000000000000e+02
ITEM: ATOMS id type x y z q 
1 2 97.9036 0.02371 0.018312 1.1596 
3 1 96.2624 0.079406 0.0145 -0.646554 
8 3 95.8491 0.918631 0.248662 0.35342 
12 1 1.70301 99.596 1.52764 -0.662761 
15 3 0.751796 99.5709 1.72279 0.37695 
16 3 4.25566 99.5066 0.420236 0.355256 
5 1 98.5849 99.5182 1.45197 -0.671797 
6 3 98.3204 98.642 1.75969 0.343898 
10 1 3.73392 0.100726 99.8694 -0.621848 
11 1 1.41964 1.45105 99.5614 -0.67524 
17 3 1.82145 2.22215 99.9811 0.348642 
4 1 98.5068 1.50474 99.6886 -0.658001 
7 3 99.4766 1.59329 99.5966 0.398479 
9 2 2.10306 99.9737 99.9698 1.17551 
13 1 1.50897 98.8978 98.8834 -0.628861 
14 3 0.5505 98.7494 98.8436 0.384032 
2 1 98.3958 98.8525 98.9421 -0.678595 
18 3 97.9574 98.8301 98.0828 0.34787 
ITEM: TIMESTEP
112
ITEM: NUMBER OF ATOMS
18
ITEM: BOX BOUNDS pp pp pp
0.0000000000000000e+00 1.0000000000000000e+02
0.0000000000000000e+00 1.0000000000000000e+02
0.0000000000000000e+00 1.0000000000000000e+02
ITEM: ATOMS id type x y z q 
1 2 97.9476 -0.0468719 0.0452669 1.15858 
3 1 96.3146 -0.105222 0.0765635 -0.672003 
8 3 95.9097 0.758947 0.0604798 0.353104 
12 1 1.56965 99.5071 1.44507 -0.646067 
15 3 0.603215 99.4892 1.5085 0.402452 
16 3 4.19995 99.3476 0.319848 0.35915 
5 1 98.5927 99.4032 1.45467 -0.689378 
6 3 97.9665 98.9203 1.99025 0.351614 
10 1 3.77603 0.137873 99.9967 -0.644741 
11 1 1.46927 1.53297 99.7486 -0.693811 
17 3 2.12254 2.20838 99.5785 0.362082 
4 1 98.4783 1.48882 99.8173 -0.651666 
7 3 99.4429 1.56572 99.7919 0.403238 
9 2 2.14195 100.056 100.009 1.18349 
13 1 1.54904 99.0466 98.8586 -0.63915 
14 3 0.58226 99.0203 98.7956 0.401323 
2 1 98.5575 99.0347 98.8251 -0.690422 
18 3 97.8814 98.6658 98.2604 0.352204 
