ITEM: TIMESTEP
0
ITEM: NUMBER OF ATOMS
18
ITEM: BOX BOUNDS pp pp pp
0.0000000000000000e+00 1.0000000000000000e+02
0.0000000000000000e+00 1.0000000000000000e+02
0.0000000000000000e+00 1.0000000000000000e+02
ITEM: ATOMS id type x y z q 
17 3 1.84352 2.22174 0.068043 0.351881 
1 2 98.028 0.032138 0.021627 1.1633 
3 1 96.3848 0.077406 0.015089 -0.645604 
8 3 95.9676 0.897309 0.304156 0.353167 
12 1 1.56872 99.5222 1.50208 -0.667921 
15 3 0.616214 99.4524 1.68802 0.392703 
16 3 4.11212 99.4358 0.42672 0.35496 
5 1 98.675 99.3781 1.41067 -0.685299 
6 3 98.3804 98.4844 1.62885 0.345591 
10 1 3.61434 0.06506 99.8931 -0.620432 
11 1 1.37606 1.499 99.63 -0.685325 
4 1 98.6145 1.53646 99.8368 -0.665116 
7 3 99.5834 1.65559 99.7265 0.409604 
9 2 1.97692 99.9658 99.9692 1.17872 
13 1 1.38413 98.9705 98.8158 -0.636005 
14 3 0.424618 98.8278 98.7443 0.399285 
2 1 98.5015 98.9557 98.8405 -0.692662 
18 3 98.0502 99.0175 97.9895 0.349152 
ITEM: TIMESTEP
152
ITEM: NUMBER OF ATOMS
18
ITEM: BOX BOUNDS pp pp pp
0.0000000000000000e+00 1.0000000000000000e+02
0.0000000000000000e+00 1.0000000000000000e+02
0.0000000000000000e+00 1.0000000000000000e+02
ITEM: ATOMS id type x y z q 
17 3 2.11744 2.20911 -0.344295 0.366143 
1 2 98.0729 -0.0405312 0.0345079 1.16228 
3 1 96.4359 -0.0878136 0.0582408 -0.668695 
8 3 96.0427 0.77934 0.119551 0.355787 
12 1 1.51374 99.4748 1.46285 -0.652009 
15 3 0.555972 99.3775 1.54445 0.407697 
16 3 4.07356 99.3212 0.325663 0.361932 
5 1 98.6429 99.219 1.38403 -0.700905 
6 3 97.9695 98.7336 1.85882 0.355418 
10 1 3.65895 0.116653 100.003 -0.639037 
11 1 1.42793 1.55642 99.7724 -0.703717 
4 1 98.5522 1.5241 99.9965 -0.659266 
7 3 99.5076 1.64269 99.9151 0.408807 
9 2 2.02179 100.046 100.016 1.18713 
13 1 1.4844 99.0447 98.8369 -0.644478 
14 3 0.528426 99.051 98.6927 0.407723 
2 1 98.6036 99.1797 98.691 -0.70094 
18 3 97.8926 98.8473 98.1437 0.35613 
