ITEM: TIMESTEP
0
ITEM: NUMBER OF ATOMS
18
ITEM: BOX BOUNDS pp pp pp
0.0000000000000000e+00 1.0000000000000000e+02
0.0000000000000000e+00 1.0000000000000000e+02
0.0000000000000000e+00 1.0000000000000000e+02
ITEM: ATOMS id type x y z q 
3 1 95.9747 1.12144 0.663826 -0.642637 
4 1 98.5099 0.65889 0.116041 -0.658675 
7 3 99.2961 0.093575 0.078807 0.393396 
8 3 96.3312 1.66942 1.37218 0.349444 
12 1 3.69031 99.9035 1.46999 -0.644053 
15 3 3.60136 99.0673 1.94144 0.351143 
1 2 97.006 99.9974 0.027252 1.16895 
5 1 97.066 98.5485 0.816022 -0.638569 
6 3 96.3851 97.9075 0.582223 0.352475 
10 1 3.7712 1.21716 99.1766 -0.64511 
11 1 1.39398 0.389601 99.9405 -0.671684 
16 3 4.70411 1.35346 99.3775 0.350308 
17 3 1.19129 1.33437 99.9361 0.358372 
18 3 96.0208 0.401249 98.0444 0.350181 
9 2 3.00576 99.9959 99.9749 1.16893 
13 1 3.12766 98.4913 99.3136 -0.647009 
14 3 2.54255 98.2848 98.5758 0.347209 
2 1 96.4366 99.6674 98.5112 -0.642668 
ITEM: TIMESTEP
56
ITEM: NUMBER OF ATOMS
18
ITEM: BOX BOUNDS pp pp pp
0.0000000000000000e+00 1.0000000000000000e+02
0.0000000000000000e+00 1.0000000000000000e+02
0.0000000000000000e+00 1.0000000000000000e+02
ITEM: ATOMS id type x y z q 
3 1 95.8284 0.917172 0.732222 -0.652571 
4 1 98.394 0.916323 0.0443035 -0.661016 
7 3 99.1902 0.389689 0.129118 0.390008 
8 3 96.1679 1.60443 1.29962 0.354063 
12 1 3.64468 99.896 1.486 -0.649216 
15 3 3.63222 99.0267 1.87767 0.355991 
1 2 97.0116 100.04 0.0143964 1.17665 
5 1 97.2406 98.6296 0.815354 -0.642078 
6 3 96.5846 97.967 0.616359 0.355199 
10 1 3.77834 1.09039 99.1083 -0.650942 
11 1 1.41278 0.295736 100.024 -0.674135 
16 3 4.61949 1.34315 99.4795 0.354494 
17 3 1.25053 1.22174 99.854 0.35373 
18 3 95.9466 0.364694 98.1206 0.352622 
9 2 3.01013 99.9321 99.9759 1.17543 
13 1 3.20811 98.4628 99.2791 -0.647753 
14 3 2.57405 98.2808 98.5908 0.353931 
2 1 96.5604 99.7245 98.4712 -0.644406 
