ITEM: TIMESTEP
0
ITEM: NUMBER OF ATOMS
18
ITEM: BOX BOUNDS pp pp pp
0.0000000000000000e+00 1.0000000000000000e+02
0.0000000000000000e+00 1.0000000000000000e+02
0.0000000000000000e+00 1.0000000000000000e+02
ITEM: ATOMS id type x y z q 
17 3 1.82404 2.22354 0.031305 0.349682 
1 2 97.9533 0.02672 0.019213 1.16093 
3 1 96.3114 0.068962 0.011672 -0.646485 
8 3 95.891 0.898837 0.265582 0.353211 
12 1 1.64496 99.5599 1.51514 -0.664624 
15 3 0.692143 99.5235 1.70433 0.383138 
16 3 4.19773 99.4716 0.418799 0.355075 
5 1 98.6241 99.4689 1.43876 -0.677029 
6 3 98.3484 98.5861 1.71675 0.344422 
10 1 3.68611 0.08547 99.8803 -0.621444 
11 1 1.40057 1.47298 99.5957 -0.678507 
4 1 98.545 1.5204 99.7436 -0.660448 
7 3 99.5147 1.62157 99.6469 0.402507 
9 2 2.05263 99.971 99.9695 1.17662 
13 1 1.45533 98.9333 98.8511 -0.631456 
14 3 0.496166 98.7844 98.8064 0.390392 
2 1 98.45 98.8928 98.9042 -0.684281 
18 3 98.012 98.9008 98.0443 0.348296 
ITEM: TIMESTEP
199
ITEM: NUMBER OF ATOMS
18
ITEM: BOX BOUNDS pp pp pp
0.0000000000000000e+00 1.0000000000000000e+02
0.0000000000000000e+00 1.0000000000000000e+02
0.0000000000000000e+00 1.0000000000000000e+02
ITEM: ATOMS id type x y z q 
17 3 1.99353 2.09751 99.4713 0.367177 
1 2 97.7099 0.556199 99.0571 0.933273 
3 1 96.2616 0.138744 99.6435 -0.640829 
8 3 95.9848 0.668893 0.389462 0.357501 
12 1 1.55663 100.12 1.83296 -0.595779 
15 3 0.641927 99.4134 2.06689 0.446142 
16 3 3.76806 99.3253 0.594951 0.360728 
5 1 99.7136 98.6466 2.08166 -0.561212 
6 3 99.7508 98.341 1.16962 0.380171 
10 1 3.30292 99.738 99.8722 -0.633791 
11 1 1.27953 1.45998 99.5277 -0.705549 
4 1 98.5233 1.74418 99.7917 -0.646208 
7 3 99.4951 1.67568 99.7315 0.413245 
9 2 1.73123 100.04 0.216028 1.1699 
13 1 0.73097 98.8408 99.6922 -0.697282 
14 3 0.0259053 99.1549 99.0728 0.403244 
2 1 98.5426 99.4486 98.2075 -0.698332 
18 3 98.0872 98.6015 98.1445 0.3476 
