ITEM: TIMESTEP
0
ITEM: NUMBER OF ATOMS
18
ITEM: BOX BOUNDS pp pp pp
0.0000000000000000e+00 1.0000000000000000e+02
0.0000000000000000e+00 1.0000000000000000e+02
0.0000000000000000e+00 1.0000000000000000e+02
ITEM: ATOMS id type x y z q 
10 1 3.73496 0.65298 0.234377 -0.65092 
16 3 4.15622 0.524524 1.09178 0.351999 
3 1 96.4892 0.788773 0.728924 -0.644817 
8 3 96.6424 1.7012 1.00021 0.348879 
9 2 2.25265 99.9632 0.018249 1.16914 
12 1 1.49371 99.8908 1.46132 -0.654615 
15 3 0.555334 99.6163 1.44997 0.414531 
5 1 98.7825 99.2162 1.02774 -0.690974 
6 3 98.5364 98.3011 1.21308 0.35769 
11 1 1.46617 0.939453 98.9041 -0.690208 
17 3 1.78431 1.85115 98.8771 0.34719 
1 2 97.7532 0.029548 99.9904 1.1764 
4 1 98.6452 1.1802 99.2495 -0.666206 
7 3 99.5868 1.02278 99.0427 0.40766 
13 1 2.27346 98.4554 99.3551 -0.632896 
14 3 2.49081 98.3908 98.4182 0.34967 
2 1 97.1044 98.8355 99.0558 -0.643301 
18 3 96.2488 99.0192 98.6517 0.350778 
ITEM: TIMESTEP
158
ITEM: NUMBER OF ATOMS
18
ITEM: BOX BOUNDS pp pp pp
0.0000000000000000e+00 1.0000000000000000e+02
0.0000000000000000e+00 1.0000000000000000e+02
0.0000000000000000e+00 1.0000000000000000e+02
ITEM: ATOMS id type x y z q 
10 1 3.75454 0.654887 0.201858 -0.649415 
16 3 4.10929 0.507749 1.0748 0.360795 
3 1 96.4525 0.640977 0.79674 -0.648823 
8 3 96.5499 1.56197 1.02465 0.357343 
9 2 2.27114 99.9923 -0.00697233 1.17462 
12 1 1.45601 100.033 1.41297 -0.651277 
15 3 0.53095 99.7537 1.36562 0.40985 
5 1 98.7043 99.1848 1.11714 -0.695049 
6 3 98.5109 98.2478 1.13201 0.356987 
11 1 1.45334 0.866633 98.8694 -0.710466 
17 3 1.90318 1.6787 98.6358 0.355481 
1 2 97.7725 0.0187631 100.053 1.17723 
4 1 98.6429 1.24982 99.4141 -0.659652 
7 3 99.5711 1.0529 99.222 0.405286 
13 1 2.39454 98.4503 99.454 -0.637849 
14 3 2.26836 98.3648 98.5126 0.351921 
2 1 97.2785 98.9909 98.8773 -0.652647 
18 3 96.3727 99.1293 98.6133 0.355666 
