ITEM: TIMESTEP
0
ITEM: NUMBER OF ATOMS
18
ITEM: BOX BOUNDS pp pp pp
0.0000000000000000e+00 1.0000000000000000e+02
0.0000000000000000e+00 1.0000000000000000e+02
0.0000000000000000e+00 1.0000000000000000e+02
ITEM: ATOMS id type x y z q 
9 2 1.89919 0.0402 0.02864 1.17996 
13 1 1.31458 1.0828 1.13872 -0.642096 
14 3 0.364729 1.1047 1.35009 0.409805 
2 1 98.5339 0.84751 1.31427 -0.701091 
18 3 98.0589 0.655082 2.13213 0.349619 
10 1 3.53995 99.9414 0.1081 -0.62223 
11 1 1.3319 98.5068 0.428937 -0.695749 
17 3 1.89871 97.7853 0.127479 0.354845 
7 3 99.6325 98.3034 0.103868 0.413003 
12 1 1.51814 0.423845 98.4762 -0.6681 
15 3 0.580832 0.618896 98.3018 0.40155 
16 3 4.03032 0.498945 99.4939 0.355334 
5 1 98.7416 0.838119 98.7061 -0.690654 
6 3 98.4943 1.77136 98.6742 0.347115 
1 2 98.1004 99.9641 99.9689 1.16725 
3 1 96.4555 99.9171 99.9478 -0.64388 
4 1 98.6769 98.4491 99.9192 -0.668344 
8 3 96.0455 99.1479 99.5357 0.353663 
ITEM: TIMESTEP
183
ITEM: NUMBER OF ATOMS
18
ITEM: BOX BOUNDS pp pp pp
0.0000000000000000e+00 1.0000000000000000e+02
0.0000000000000000e+00 1.0000000000000000e+02
0.0000000000000000e+00 1.0000000000000000e+02
ITEM: ATOMS id type x y z q 
9 2 1.91032 99.899 99.9643 1.18074 
13 1 1.2383 0.894903 1.07479 -0.64077 
14 3 0.271325 0.903024 1.06324 0.390011 
2 1 98.42 0.890616 0.861964 -0.746497 
18 3 97.8116 1.56168 1.1944 0.347793 
10 1 3.5474 99.9187 0.0335956 -0.629559 
11 1 1.37142 98.371 0.234764 -0.701327 
17 3 2.04958 97.7083 0.0931561 0.370297 
7 3 99.5659 98.316 0.0831575 0.410686 
12 1 1.46929 0.382773 98.4819 -0.605784 
15 3 0.568689 1.1345 98.4915 0.448629 
16 3 3.92615 0.573395 99.4524 0.365573 
5 1 99.6335 1.87619 98.5049 -0.563696 
6 3 99.1375 1.59438 99.2701 0.377165 
1 2 97.7262 99.4272 0.694473 0.923941 
3 1 96.123 99.3945 0.466141 -0.63681 
4 1 98.5953 98.2328 0.0377509 -0.647134 
8 3 95.8524 98.8177 99.7538 0.356741 
