ITEM: TIMESTEP
0
ITEM: NUMBER OF ATOMS
18
ITEM: BOX BOUNDS pp pp pp
0.0000000000000000e+00 1.0000000000000000e+02
0.0000000000000000e+00 1.0000000000000000e+02
0.0000000000000000e+00 1.0000000000000000e+02
ITEM: ATOMS id type x y z q 
3 1 95.9747 1.12144 0.663826 -0.642637 
4 1 98.5099 0.65889 0.116041 -0.658675 
7 3 99.2961 0.093575 0.078807 0.393396 
8 3 96.3312 1.66942 1.37218 0.349444 
12 1 3.69031 99.9035 1.46999 -0.644053 
15 3 3.60136 99.0673 1.94144 0.351143 
1 2 97.006 99.9974 0.027252 1.16895 
5 1 97.066 98.5485 0.816022 -0.638569 
6 3 96.3851 97.9075 0.582223 0.352475 
10 1 3.7712 1.21716 99.1766 -0.64511 
11 1 1.39398 0.389601 99.9405 -0.671684 
16 3 4.70411 1.35346 99.3775 0.350308 
17 3 1.19129 1.33437 99.9361 0.358372 
18 3 96.0208 0.401249 98.0444 0.350181 
9 2 3.00576 99.9959 99.9749 1.16893 
13 1 3.12766 98.4913 99.3136 -0.647009 
14 3 2.54255 98.2848 98.5758 0.347209 
2 1 96.4366 99.6674 98.5112 -0.642668 
ITEM: TIMESTEP
98
ITEM: NUMBER OF ATOMS
18
ITEM: BOX BOUNDS pp pp pp
0.0000000000000000e+00 1.0000000000000000e+02
0.0000000000000000e+00 1.0000000000000000e+02
0.0000000000000000e+00 1.0000000000000000e+02
ITEM: ATOMS id type x y z q 
3 1 95.9832 1.62628 0.445665 -0.64536 
4 1 98.7146 1.57024 99.9726 -0.660943 
7 3 99.3245 0.876542 99.7192 0.372281 
8 3 96.2635 1.96151 1.29592 0.3474 
12 1 3.38126 99.9364 1.46545 -0.64948 
15 3 3.64793 99.0629 1.7407 0.358131 
1 2 97.2086 1.36204 99.4214 0.932299 
5 1 96.8214 95.9559 1.99548 -0.401624 
6 3 96.668 96.6534 1.4078 0.347133 
10 1 3.63983 1.17408 99.1272 -0.634421 
11 1 1.25016 0.183694 -0.175847 -0.676319 
16 3 4.47575 1.40275 99.5244 0.357262 
17 3 0.999015 1.08339 100.032 0.357125 
18 3 96.0354 0.223999 97.974 0.344752 
9 2 2.8715 99.9575 99.9089 1.17824 
13 1 3.24399 98.5076 99.2447 -0.649663 
14 3 2.56564 98.1939 98.6531 0.36224 
2 1 96.9603 0.370665 98.1656 -0.639053 
