ITEM: TIMESTEP
0
ITEM: NUMBER OF ATOMS
18
ITEM: BOX BOUNDS pp pp pp
0.0000000000000000e+00 1.0000000000000000e+02
0.0000000000000000e+00 1.0000000000000000e+02
0.0000000000000000e+00 1.0000000000000000e+02
ITEM: ATOMS id type x y z q 
10 1 3.11561 0.302651 0.732666 -0.627842 
16 3 3.745 0.843943 0.243815 0.35057 
17 3 0.712235 0.204852 1.98849 0.353668 
2 1 98.8922 1.469 0.559626 -0.698658 
18 3 98.1441 2.07744 0.632845 0.351413 
11 1 0.663782 99.5951 1.24033 -0.6846 
1 2 98.3781 99.967 0.021025 1.18415 
4 1 98.1627 98.7296 1.07495 -0.645454 
7 3 98.9845 98.3783 1.44262 0.391746 
13 1 1.23301 1.32487 99.1217 -0.679803 
14 3 0.567428 1.87288 99.5682 0.374643 
3 1 96.8384 0.373626 99.5372 -0.651234 
6 3 99.4619 0.11735 98.0645 0.352494 
9 2 1.6778 99.9795 99.9801 1.19562 
12 1 1.88481 98.6741 99.0139 -0.620996 
15 3 1.07109 98.3698 98.5901 0.386817 
5 1 99.2504 99.4353 98.7179 -0.689673 
8 3 96.2039 99.6516 99.4683 0.357139 
ITEM: TIMESTEP
488
ITEM: NUMBER OF ATOMS
18
ITEM: BOX BOUNDS pp pp pp
0.0000000000000000e+00 1.0000000000000000e+02
0.0000000000000000e+00 1.0000000000000000e+02
0.0000000000000000e+00 1.0000000000000000e+02
ITEM: ATOMS id type x y z q 
10 1 3.33565 0.152638 0.467387 -0.623099 
16 3 3.62085 0.933848 100 0.363898 
17 3 1.44807 98.9573 2.26843 0.36637 
2 1 98.4663 1.69376 0.240195 -0.701339 
18 3 98.0162 2.34738 99.6953 0.353709 
11 1 1.01585 99.6379 1.74534 -0.701861 
1 2 97.7926 0.21676 0.187185 0.953492 
4 1 98.4115 99.0466 1.11552 -0.642646 
7 3 99.3482 99.2014 1.37876 0.406697 
13 1 1.04956 1.17146 99.547 -0.716764 
14 3 0.191329 1.44442 -0.04808 0.401107 
3 1 96.2965 0.0473239 99.5975 -0.633235 
6 3 0.21433 0.447939 98.1307 0.374841 
9 2 1.73355 99.8692 0.283728 1.16705 
12 1 1.4557 98.5532 99.3575 -0.615568 
15 3 0.807233 98.7742 98.5596 0.411165 
5 1 99.8791 99.6752 97.6878 -0.522953 
8 3 95.9044 99.1964 99.784 0.359135 
