ITEM: TIMESTEP
0
ITEM: NUMBER OF ATOMS
18
ITEM: BOX BOUNDS pp pp pp
0.0000000000000000e+00 1.0000000000000000e+02
0.0000000000000000e+00 1.0000000000000000e+02
0.0000000000000000e+00 1.0000000000000000e+02
ITEM: ATOMS id type x y z q 
10 1 3.73496 0.65298 0.234377 -0.65092 
16 3 4.15622 0.524524 1.09178 0.351999 
3 1 96.4892 0.788773 0.728924 -0.644817 
8 3 96.6424 1.7012 1.00021 0.348879 
9 2 2.25265 99.9632 0.018249 1.16914 
12 1 1.49371 99.8908 1.46132 -0.654615 
15 3 0.555334 99.6163 1.44997 0.414531 
5 1 98.7825 99.2162 1.02774 -0.690974 
6 3 98.5364 98.3011 1.21308 0.35769 
11 1 1.46617 0.939453 98.9041 -0.690208 
17 3 1.78431 1.85115 98.8771 0.34719 
1 2 97.7532 0.029548 99.9904 1.1764 
4 1 98.6452 1.1802 99.2495 -0.666206 
7 3 99.5868 1.02278 99.0427 0.40766 
13 1 2.27346 98.4554 99.3551 -0.632896 
14 3 2.49081 98.3908 98.4182 0.34967 
2 1 97.1044 98.8355 99.0558 -0.643301 
18 3 96.2488 99.0192 98.6517 0.350778 
ITEM: TIMESTEP
199
ITEM: NUMBER OF ATOMS
18
ITEM: BOX BOUNDS pp pp pp
0.0000000000000000e+00 1.0000000000000000e+02
0.0000000000000000e+00 1.0000000000000000e+02
0.0000000000000000e+00 1.0000000000000000e+02
ITEM: ATOMS id type x y z q 
10 1 3.37624 0.630673 0.218742 -0.647445 
16 3 3.57838 0.66303 1.15011 0.361361 
3 1 96.2821 1.12792 0.354549 -0.643255 
8 3 96.5185 1.77123 1.01975 0.354155 
9 2 1.9046 99.9699 99.9306 1.17452 
12 1 1.00268 0.131874 1.26541 -0.616126 
15 3 0.503857 99.1331 1.62114 0.453996 
5 1 99.9492 98.1398 1.99299 -0.556914 
6 3 99.4292 97.8815 1.25417 0.350997 
11 1 1.22165 0.788624 98.6772 -0.708084 
17 3 1.72041 1.58384 98.4664 0.355357 
1 2 97.4848 0.79476 99.3238 0.940007 
4 1 98.7638 1.78259 99.3197 -0.641542 
7 3 99.6395 1.3438 99.2025 0.417638 
13 1 2.04033 98.3996 99.4887 -0.638458 
14 3 1.98241 98.2828 98.5442 0.357829 
2 1 97.6911 99.2432 98.9077 -0.653015 
18 3 96.9077 98.7109 99.0326 0.33898 
