ITEM: TIMESTEP
0
ITEM: NUMBER OF ATOMS
18
ITEM: BOX BOUNDS pp pp pp
0.0000000000000000e+00 1.0000000000000000e+02
0.0000000000000000e+00 1.0000000000000000e+02
0.0000000000000000e+00 1.0000000000000000e+02
ITEM: ATOMS id type x y z q 
17 3 1.85826 2.22061 0.064557 0.352965 
1 2 98.0526 0.034028 0.022933 1.16427 
3 1 96.4089 0.084561 0.017505 -0.645176 
8 3 95.9952 0.899117 0.325912 0.353195 
12 1 1.54592 99.5148 1.5 -0.668747 
15 3 0.594761 99.4235 1.68442 0.395788 
16 3 4.08447 99.4247 0.427391 0.354982 
5 1 98.6886 99.3348 1.3946 -0.687857 
6 3 98.3885 98.4362 1.58324 0.346023 
10 1 3.59037 0.059415 99.8969 -0.620267 
11 1 1.36957 1.50614 99.6362 -0.687991 
4 1 98.6395 1.54107 99.8817 -0.666817 
7 3 99.6074 1.66732 99.7629 0.411902 
9 2 1.95165 99.9639 99.9695 1.17946 
13 1 1.36227 98.9771 98.8089 -0.637993 
14 3 0.402633 98.844 98.7191 0.402288 
2 1 98.5138 98.9869 98.8108 -0.695464 
18 3 98.0563 99.0743 97.9653 0.349436 
ITEM: TIMESTEP
121
ITEM: NUMBER OF ATOMS
18
ITEM: BOX BOUNDS pp pp pp
0.0000000000000000e+00 1.0000000000000000e+02
0.0000000000000000e+00 1.0000000000000000e+02
0.0000000000000000e+00 1.0000000000000000e+02
ITEM: ATOMS id type x y z q 
17 3 2.11919 2.19868 -0.363449 0.366493 
1 2 98.0971 -0.0347468 0.0294994 1.16336 
3 1 96.4594 -0.0795366 0.0583536 -0.668038 
8 3 96.0704 0.783446 0.176832 0.356483 
12 1 1.50227 99.5244 1.49247 -0.652576 
15 3 0.550453 99.3821 1.56953 0.408026 
16 3 4.04695 99.3109 0.331171 0.362281 
5 1 98.6558 99.1549 1.34221 -0.702149 
6 3 97.9843 98.6287 1.77478 0.355635 
10 1 3.63499 0.105048 100.002 -0.638126 
11 1 1.4216 1.54971 99.7247 -0.704595 
4 1 98.5675 1.53151 100.067 -0.66043 
7 3 99.5158 1.66368 99.9408 0.409125 
9 2 1.99717 100.043 100.022 1.18782 
13 1 1.4661 98.9992 98.878 -0.646131 
14 3 0.519808 99.0402 98.688 0.408855 
2 1 98.6102 99.2491 98.6453 -0.702667 
18 3 97.8919 98.9426 98.093 0.35663 
