ITEM: TIMESTEP
0
ITEM: NUMBER OF ATOMS
18
ITEM: BOX BOUNDS pp pp pp
0.0000000000000000e+00 1.0000000000000000e+02
0.0000000000000000e+00 1.0000000000000000e+02
0.0000000000000000e+00 1.0000000000000000e+02
ITEM: ATOMS id type x y z q 
9 2 1.89919 0.0402 0.02864 1.17996 
13 1 1.31458 1.0828 1.13872 -0.642096 
14 3 0.364729 1.1047 1.35009 0.409805 
2 1 98.5339 0.84751 1.31427 -0.701091 
18 3 98.0589 0.655082 2.13213 0.349619 
10 1 3.53995 99.9414 0.1081 -0.62223 
11 1 1.3319 98.5068 0.428937 -0.695749 
17 3 1.89871 97.7853 0.127479 0.354845 
7 3 99.6325 98.3034 0.103868 0.413003 
12 1 1.51814 0.423845 98.4762 -0.6681 
15 3 0.580832 0.618896 98.3018 0.40155 
16 3 4.03032 0.498945 99.4939 0.355334 
5 1 98.7416 0.838119 98.7061 -0.690654 
6 3 98.4943 1.77136 98.6742 0.347115 
1 2 98.1004 99.9641 99.9689 1.16725 
3 1 96.4555 99.9171 99.9478 -0.64388 
4 1 98.6769 98.4491 99.9192 -0.668344 
8 3 96.0455 99.1479 99.5357 0.353663 
ITEM: TIMESTEP
169
ITEM: NUMBER OF ATOMS
18
ITEM: BOX BOUNDS pp pp pp
0.0000000000000000e+00 1.0000000000000000e+02
0.0000000000000000e+00 1.0000000000000000e+02
0.0000000000000000e+00 1.0000000000000000e+02
ITEM: ATOMS id type x y z q 
9 2 1.95307 -0.0585752 -0.00225257 1.18701 
13 1 1.43121 1.04702 1.08527 -0.646384 
14 3 0.509721 0.939235 1.35368 0.409911 
2 1 98.6409 0.528622 1.45566 -0.702119 
18 3 97.916 0.804401 2.01586 0.35676 
10 1 3.59166 99.881 0.01475 -0.637721 
11 1 1.39372 98.4485 0.385225 -0.703542 
17 3 2.10005 97.8224 0.543822 0.366777 
7 3 99.5433 98.323 -0.0952868 0.410081 
12 1 1.46442 0.375327 98.4973 -0.653897 
15 3 0.541898 0.656228 98.4441 0.408704 
16 3 4.00054 0.626998 99.5847 0.362104 
5 1 98.7038 1.06289 98.8033 -0.702119 
6 3 98.0056 1.56723 98.3866 0.356275 
1 2 98.153 100.044 99.9658 1.16203 
3 1 96.5147 100.085 99.933 -0.66816 
4 1 98.6222 98.503 99.6757 -0.66177 
8 3 96.132 99.2406 99.7089 0.356056 
