ITEM: TIMESTEP
0
ITEM: NUMBER OF ATOMS
18
ITEM: BOX BOUNDS pp pp pp
0.0000000000000000e+00 1.0000000000000000e+02
0.0000000000000000e+00 1.0000000000000000e+02
0.0000000000000000e+00 1.0000000000000000e+02
ITEM: ATOMS id type x y z q 
9 2 1.7969 0.035907 0.015445 1.17466 
13 1 1.15966 1.23895 0.924715 -0.655588 
14 3 0.396511 1.02923 1.48968 0.408646 
2 1 98.5854 0.511472 1.48697 -0.702018 
18 3 98.0173 0.205915 2.20405 0.348359 
10 1 3.43339 99.9116 0.184863 -0.632882 
11 1 1.1992 98.5767 0.591557 -0.706281 
17 3 1.86717 97.8825 0.654354 0.355503 
12 1 1.51398 0.249091 98.4132 -0.660827 
15 3 0.617917 0.562425 98.2021 0.401524 
16 3 3.96526 0.305887 99.4847 0.35643 
5 1 98.9111 1.08312 98.9433 -0.682193 
6 3 99.0926 1.94847 99.3342 0.360209 
1 2 98.1978 99.9798 99.9554 1.17477 
3 1 96.5538 99.997 99.8496 -0.636872 
4 1 98.6899 98.4719 99.5857 -0.667659 
7 3 99.5982 98.237 99.8651 0.407872 
8 3 96.1482 99.2898 99.3351 0.356339 
ITEM: TIMESTEP
156
ITEM: NUMBER OF ATOMS
18
ITEM: BOX BOUNDS pp pp pp
0.0000000000000000e+00 1.0000000000000000e+02
0.0000000000000000e+00 1.0000000000000000e+02
0.0000000000000000e+00 1.0000000000000000e+02
ITEM: ATOMS id type x y z q 
9 2 1.76933 -0.0617875 -0.0468934 1.16498 
13 1 0.877221 1.06065 0.766187 -0.690738 
14 3 0.102042 0.673279 1.23895 0.401077 
2 1 98.4798 0.217753 1.74756 -0.702552 
18 3 97.9521 0.964882 2.05085 0.348832 
10 1 3.38112 100.132 0.16189 -0.635054 
11 1 1.32872 98.4367 0.450418 -0.704309 
17 3 2.07552 97.8416 0.536778 0.368632 
12 1 1.42733 0.123321 98.3722 -0.598842 
15 3 0.564047 0.924513 98.3449 0.442763 
16 3 3.79488 0.566647 99.4206 0.361795 
5 1 99.7089 1.74865 98.5409 -0.570514 
6 3 99.8575 1.90689 99.4783 0.375644 
1 2 97.8111 99.4069 0.509415 0.946345 
3 1 96.3294 99.7967 99.9961 -0.639533 
4 1 98.6345 98.2234 99.7785 -0.64272 
7 3 99.5939 98.2332 99.9584 0.414851 
8 3 96.0567 99.3217 99.2149 0.359339 
