ITEM: TIMESTEP
0
ITEM: NUMBER OF ATOMS
18
ITEM: BOX BOUNDS pp pp pp
0.0000000000000000e+00 1.0000000000000000e+02
0.0000000000000000e+00 1.0000000000000000e+02
0.0000000000000000e+00 1.0000000000000000e+02
ITEM: ATOMS id type x y z q 
17 3 1.84352 2.22174 0.068043 0.351881 
1 2 98.028 0.032138 0.021627 1.1633 
3 1 96.3848 0.077406 0.015089 -0.645604 
8 3 95.9676 0.897309 0.304156 0.353167 
12 1 1.56872 99.5222 1.50208 -0.667921 
15 3 0.616214 99.4524 1.68802 0.392703 
16 3 4.11212 99.4358 0.42672 0.35496 
5 1 98.675 99.3781 1.41067 -0.685299 
6 3 98.3804 98.4844 1.62885 0.345591 
10 1 3.61434 0.06506 99.8931 -0.620432 
11 1 1.37606 1.499 99.63 -0.685325 
4 1 98.6145 1.53646 99.8368 -0.665116 
7 3 99.5834 1.65559 99.7265 0.409604 
9 2 1.97692 99.9658 99.9692 1.17872 
13 1 1.38413 98.9705 98.8158 -0.636005 
14 3 0.424618 98.8278 98.7443 0.399285 
2 1 98.5015 98.9557 98.8405 -0.692662 
18 3 98.0502 99.0175 97.9895 0.349152 
ITEM: TIMESTEP
110
ITEM: NUMBER OF ATOMS
18
ITEM: BOX BOUNDS pp pp pp
0.0000000000000000e+00 1.0000000000000000e+02
0.0000000000000000e+00 1.0000000000000000e+02
0.0000000000000000e+00 1.0000000000000000e+02
ITEM: ATOMS id type x y z q 
17 3 2.11811 2.21254 -0.339804 0.365985 
1 2 98.0714 -0.0453312 0.0363119 1.16229 
3 1 96.4345 -0.0907346 0.056261 -0.669162 
8 3 96.0419 0.77858 0.0797891 0.355349 
12 1 1.51166 99.4591 1.44852 -0.652109 
15 3 0.554496 99.3501 1.52943 0.40773 
16 3 4.07708 99.3219 0.320688 0.361738 
5 1 98.6378 99.1996 1.37944 -0.700591 
6 3 97.9461 98.7977 1.90387 0.355663 
10 1 3.66271 0.118946 100.002 -0.639387 
11 1 1.42963 1.55949 99.7813 -0.703174 
4 1 98.553 1.5191 100.022 -0.659631 
7 3 99.508 1.63814 99.936 0.408825 
9 2 2.02566 100.047 100.01 1.18729 
13 1 1.48856 99.0602 98.8186 -0.644237 
14 3 0.532138 99.0674 98.6767 0.407872 
2 1 98.6075 99.1917 98.6852 -0.700428 
18 3 97.9018 98.8091 98.1651 0.355976 
