# 1.- Inizialization #######################
units real
  #mass = grams/mole
  #distance = Angstroms
  #time = femtoseconds
  #energy = kcal/mol
  #velocity = Angstroms/femtosecond
  #force = kcal/mol.Angstrom
  #torque = kcal/mole
  #temperature = degrees K
  #pressure = atmospheres (0.1013 GPa)
  #dynamic viscosity = Poise
  #charge = multiple of electron charge (+1.0 is a proton)
  #dipole = charge*Angstroms
  #electric field = volts/Angstrom
dimension 3
processors * * *
##
boundary p p p
atom_style charge

# 2.- Atom definition ######################

atom_modify map hash
read_data   /home/sarashs/Python-forcefield-optimizer/tests/Zr_Si_forcefield/2SiOH4_6.data
  orthogonal box = (0 0 0) to (100 100 100)
  1 by 1 by 1 MPI processor grid
  reading atoms ...
  18 atoms
  read_data CPU = 0.0006826 secs

# 3.- Force-Field ##########################

pair_style reax/c NULL
pair_coeff * * /home/sarashs/Python-forcefield-optimizer/tests/Zr_Si_forcefield/annealer_0.reax O  Si H
WARNING: VdWaals-parameters for element SI indicate inner wall+shielding, but earlier atoms indicate different vdWaals-method. This may cause division-by-zero errors. Keeping vdWaals-setting for earlier atoms. (src/USER-REAXC/reaxc_ffield.cpp:259)
WARNING: Changed valency_val to valency_boc for X (src/USER-REAXC/reaxc_ffield.cpp:315)
fix 99 all qeq/reax 1 0.0 10.0 1.0e-6 reax/c
neighbor        2.0 bin
neigh_modify    every 10 check yes

## 4.- MD & relax parameters ################

dump DUMP2 all custom 1000000 /home/sarashs/Python-forcefield-optimizer/tests/Zr_Si_forcefield/2SiOH4_6annealer_0.lammpstrj id type x y z q #this size
thermo_style custom step etotal ke pe temp press pxx pyy pzz
thermo 1000000
fix holdem all restrain bond 1 5 2000 2000 6
fix_modify holdem energy yes
min_style cg
minimize 1.0e-8 0.0 200000 2000000
WARNING: Using 'neigh_modify every 1 delay 0 check yes' setting during minimization (src/min.cpp:190)
Neighbor list info ...
  update every 1 steps, delay 0 steps, check yes
  max neighbors/atom: 2000, page size: 100000
  master list distance cutoff = 12
  ghost atom cutoff = 12
  binsize = 6, bins = 17 17 17
  2 neighbor lists, perpetual/occasional/extra = 2 0 0
  (1) pair reax/c, perpetual
      attributes: half, newton off, ghost
      pair build: half/bin/newtoff/ghost
      stencil: half/ghost/bin/3d/newtoff
      bin: standard
  (2) fix qeq/reax, perpetual, copy from (1)
      attributes: half, newton off, ghost
      pair build: copy
      stencil: none
      bin: none
Per MPI rank memory allocation (min/avg/max) = 11.52 | 11.52 | 11.52 Mbytes
Step TotEng KinEng PotEng Temp Press Pxx Pyy Pzz 
       0    35963.537            0    35963.537            0    -5.816927    -6.819144   -7.4537977   -3.1778394 
      98   -1779.6523            0   -1779.6523            0  -0.10409656  -0.12598842 0.0065429314   -0.1928442 
Loop time of 0.0470995 on 1 procs for 98 steps with 18 atoms

66.3% CPU use with 1 MPI tasks x 1 OpenMP threads

Minimization stats:
  Stopping criterion = energy tolerance
  Energy initial, next-to-last, final = 
         35963.5366772     -1779.65228669     -1779.65230628
  Force two-norm initial, final = 24599.8 2.4454
  Force max component initial, final = 15268.1 0.912467
  Final line search alpha, max atom move = 0.00587082 0.00535693
  Iterations, force evaluations = 98 187

MPI task timing breakdown:
Section |  min time  |  avg time  |  max time  |%varavg| %total
---------------------------------------------------------------
Pair    | 0.038396   | 0.038396   | 0.038396   |   0.0 | 81.52
Neigh   | 0.0002157  | 0.0002157  | 0.0002157  |   0.0 |  0.46
Comm    | 0.0006346  | 0.0006346  | 0.0006346  |   0.0 |  1.35
Output  | 0          | 0          | 0          |   0.0 |  0.00
Modify  | 0.0062522  | 0.0062522  | 0.0062522  |   0.0 | 13.27
Other   |            | 0.001601   |            |       |  3.40

Nlocal:    18 ave 18 max 18 min
Histogram: 1 0 0 0 0 0 0 0 0 0
Nghost:    126 ave 126 max 126 min
Histogram: 1 0 0 0 0 0 0 0 0 0
Neighs:    287 ave 287 max 287 min
Histogram: 1 0 0 0 0 0 0 0 0 0

Total # of neighbors = 287
Ave neighs/atom = 15.9444
Neighbor list builds = 3
Dangerous builds = 0
undump DUMP2
unfix holdem
WARNING: lammps_gather_atoms: unknown property name (src/library.cpp:850)

Please see the log.cite file for references relevant to this simulation

Total wall time: 0:00:00
