ITEM: TIMESTEP
0
ITEM: NUMBER OF ATOMS
18
ITEM: BOX BOUNDS pp pp pp
0.0000000000000000e+00 1.0000000000000000e+02
0.0000000000000000e+00 1.0000000000000000e+02
0.0000000000000000e+00 1.0000000000000000e+02
ITEM: ATOMS id type x y z q 
10 1 3.79885 0.940776 0.486072 -0.65436 
16 3 4.10121 0.852985 1.39702 0.352584 
3 1 96.3355 0.95414 0.747949 -0.647231 
8 3 96.6097 1.85239 0.96606 0.347052 
9 2 2.55137 99.9698 0.011075 1.16707 
12 1 1.65082 99.577 1.32529 -0.646218 
15 3 0.699544 99.4134 1.21343 0.392004 
5 1 98.5437 99.2277 0.974675 -0.675261 
6 3 98.2335 98.4082 1.37919 0.351468 
11 1 1.65586 0.838711 98.8994 -0.666452 
17 3 1.75232 1.79691 98.9661 0.341941 
1 2 97.4516 0.011041 99.9844 1.16781 
4 1 98.3845 0.996196 99.0549 -0.652268 
7 3 99.3076 0.747384 98.8884 0.381136 
13 1 3.03498 98.5796 99.2751 -0.621046 
14 3 3.47829 98.6617 98.4234 0.347788 
2 1 96.6031 98.8216 99.2252 -0.638931 
18 3 95.7172 99.0486 98.9203 0.35291 
ITEM: TIMESTEP
141
ITEM: NUMBER OF ATOMS
18
ITEM: BOX BOUNDS pp pp pp
0.0000000000000000e+00 1.0000000000000000e+02
0.0000000000000000e+00 1.0000000000000000e+02
0.0000000000000000e+00 1.0000000000000000e+02
ITEM: ATOMS id type x y z q 
10 1 3.75949 0.971411 0.642763 -0.650593 
16 3 4.08793 0.694503 1.49396 0.361622 
3 1 96.4579 0.828048 0.975787 -0.648785 
8 3 96.5886 1.77098 0.915309 0.352462 
9 2 2.5713 100.002 0.0660997 1.17746 
12 1 1.54712 99.6131 1.28353 -0.645458 
15 3 0.611053 99.5514 1.05551 0.408441 
5 1 98.6618 99.2678 0.904737 -0.693778 
6 3 98.376 98.4596 1.32829 0.358695 
11 1 1.74156 0.823702 98.9168 -0.688655 
17 3 2.07065 1.71091 98.7964 0.350611 
1 2 97.4726 -0.0285351 100.017 1.17518 
4 1 98.1603 1.00176 98.9453 -0.658905 
7 3 99.0849 0.825179 98.7823 0.371672 
13 1 3.21202 98.6588 99.382 -0.630608 
14 3 3.13747 98.6419 98.4314 0.349684 
2 1 96.6199 98.8121 99.2342 -0.642593 
18 3 95.7491 99.0931 98.9668 0.353555 
