ITEM: TIMESTEP
0
ITEM: NUMBER OF ATOMS
18
ITEM: BOX BOUNDS pp pp pp
0.0000000000000000e+00 1.0000000000000000e+02
0.0000000000000000e+00 1.0000000000000000e+02
0.0000000000000000e+00 1.0000000000000000e+02
ITEM: ATOMS id type x y z q 
17 3 1.83521 2.2226 0.058974 0.351121 
1 2 98.003 0.030271 0.020754 1.16246 
3 1 96.3603 0.07156 0.013221 -0.646067 
8 3 95.9403 0.894451 0.289402 0.353143 
12 1 1.59356 99.5314 1.50545 -0.666662 
15 3 0.640599 99.4746 1.69205 0.389544 
16 3 4.1414 99.4485 0.422413 0.355004 
5 1 98.6593 99.4092 1.42077 -0.682402 
6 3 98.3709 98.519 1.66008 0.345149 
10 1 3.63813 0.073692 99.8891 -0.62098 
11 1 1.38197 1.49056 99.6216 -0.683111 
4 1 98.5897 1.53242 99.8057 -0.663473 
7 3 99.5588 1.64556 99.7008 0.407287 
9 2 2.00222 99.9676 99.9693 1.17807 
13 1 1.40803 98.9595 98.8259 -0.634448 
14 3 0.448445 98.8154 98.7631 0.396441 
2 1 98.4878 98.9355 98.8615 -0.689849 
18 3 98.0413 98.9786 98.0068 0.348764 
ITEM: TIMESTEP
261
ITEM: NUMBER OF ATOMS
18
ITEM: BOX BOUNDS pp pp pp
0.0000000000000000e+00 1.0000000000000000e+02
0.0000000000000000e+00 1.0000000000000000e+02
0.0000000000000000e+00 1.0000000000000000e+02
ITEM: ATOMS id type x y z q 
17 3 1.8287 2.18925 99.7117 0.360477 
1 2 97.7456 0.606855 99.0968 0.935173 
3 1 96.3453 0.192392 99.7924 -0.639902 
8 3 96.1773 0.650066 0.614072 0.360225 
12 1 1.39929 100.174 1.73479 -0.608519 
15 3 0.539275 99.3911 1.93455 0.444772 
16 3 3.70008 99.3584 0.785601 0.359853 
5 1 99.6867 98.5442 1.9215 -0.564661 
6 3 99.7838 98.2355 1.01324 0.382313 
10 1 3.31057 99.6868 99.979 -0.621308 
11 1 1.32563 1.43489 99.3932 -0.698745 
4 1 98.6356 1.75633 99.8054 -0.645051 
7 3 99.6073 1.65394 99.6814 0.40561 
9 2 1.7177 100.027 0.145373 1.16862 
13 1 0.745935 98.8213 99.5826 -0.694446 
14 3 0.0243612 99.1437 98.9859 0.404323 
2 1 98.5042 99.4849 98.199 -0.696721 
18 3 98.0236 98.6505 98.1502 0.347993 
