ITEM: TIMESTEP
0
ITEM: NUMBER OF ATOMS
18
ITEM: BOX BOUNDS pp pp pp
0.0000000000000000e+00 1.0000000000000000e+02
0.0000000000000000e+00 1.0000000000000000e+02
0.0000000000000000e+00 1.0000000000000000e+02
ITEM: ATOMS id type x y z q 
10 1 3.11561 0.302651 0.732666 -0.627842 
16 3 3.745 0.843943 0.243815 0.35057 
17 3 0.712235 0.204852 1.98849 0.353668 
2 1 98.8922 1.469 0.559626 -0.698658 
18 3 98.1441 2.07744 0.632845 0.351413 
11 1 0.663782 99.5951 1.24033 -0.6846 
1 2 98.3781 99.967 0.021025 1.18415 
4 1 98.1627 98.7296 1.07495 -0.645454 
7 3 98.9845 98.3783 1.44262 0.391746 
13 1 1.23301 1.32487 99.1217 -0.679803 
14 3 0.567428 1.87288 99.5682 0.374643 
3 1 96.8384 0.373626 99.5372 -0.651234 
6 3 99.4619 0.11735 98.0645 0.352494 
9 2 1.6778 99.9795 99.9801 1.19562 
12 1 1.88481 98.6741 99.0139 -0.620996 
15 3 1.07109 98.3698 98.5901 0.386817 
5 1 99.2504 99.4353 98.7179 -0.689673 
8 3 96.2039 99.6516 99.4683 0.357139 
ITEM: TIMESTEP
73
ITEM: NUMBER OF ATOMS
18
ITEM: BOX BOUNDS pp pp pp
0.0000000000000000e+00 1.0000000000000000e+02
0.0000000000000000e+00 1.0000000000000000e+02
0.0000000000000000e+00 1.0000000000000000e+02
ITEM: ATOMS id type x y z q 
10 1 3.26729 -0.0154499 0.592237 -0.604498 
16 3 3.69314 0.639835 0.0428967 0.364967 
17 3 1.0826 0.410326 2.33742 0.354436 
2 1 98.7417 1.44695 0.337552 -0.726067 
18 3 97.9558 1.99111 0.398131 0.363046 
11 1 0.906793 99.7045 1.71695 -0.69942 
1 2 98.3962 99.9678 -0.279475 1.15823 
4 1 98.5166 98.7334 0.790408 -0.658037 
7 3 99.3087 98.7671 1.34127 0.41288 
13 1 1.38055 1.33052 99.5805 -0.693595 
14 3 0.545751 1.72918 99.8431 0.387021 
3 1 96.7892 0.117808 99.4175 -0.642186 
6 3 99.2719 0.438237 97.7413 0.351023 
9 2 1.65814 99.8727 100.27 1.18273 
12 1 1.43535 98.6107 99.2521 -0.626831 
15 3 0.622197 98.6434 98.7307 0.406476 
5 1 99.1094 99.6599 98.2748 -0.698048 
8 3 96.3058 99.3188 99.6103 0.367873 
