# 1.- Inizialization #######################
units real
  #mass = grams/mole
  #distance = Angstroms
  #time = femtoseconds
  #energy = kcal/mol
  #velocity = Angstroms/femtosecond
  #force = kcal/mol.Angstrom
  #torque = kcal/mole
  #temperature = degrees K
  #pressure = atmospheres (0.1013 GPa)
  #dynamic viscosity = Poise
  #charge = multiple of electron charge (+1.0 is a proton)
  #dipole = charge*Angstroms
  #electric field = volts/Angstrom
dimension 3
processors * * *
##
boundary p p p
atom_style charge

# 2.- Atom definition ######################

atom_modify map hash
read_data   /home/sarashs/Python-forcefield-optimizer/tests/Zr_Si_forcefield/2SiOH4_3_6.data
  orthogonal box = (0 0 0) to (100 100 100)
  1 by 1 by 1 MPI processor grid
  reading atoms ...
  18 atoms
  read_data CPU = 0.0006827 secs

# 3.- Force-Field ##########################

pair_style reax/c NULL
pair_coeff * * /home/sarashs/Python-forcefield-optimizer/tests/Zr_Si_forcefield/annealer_0.reax O  Si H
WARNING: VdWaals-parameters for element SI indicate inner wall+shielding, but earlier atoms indicate different vdWaals-method. This may cause division-by-zero errors. Keeping vdWaals-setting for earlier atoms. (src/USER-REAXC/reaxc_ffield.cpp:259)
WARNING: Changed valency_val to valency_boc for X (src/USER-REAXC/reaxc_ffield.cpp:315)
fix 99 all qeq/reax 1 0.0 10.0 1.0e-6 reax/c
neighbor        2.0 bin
neigh_modify    every 10 check yes

## 4.- MD & relax parameters ################

dump DUMP2 all custom 1000000 /home/sarashs/Python-forcefield-optimizer/tests/Zr_Si_forcefield/2SiOH4_3_6annealer_0.lammpstrj id type x y z q #this size
thermo_style custom step etotal ke pe temp press pxx pyy pzz
thermo 1000000
fix holdem all restrain bond 1 5 2000 2000 3.6
fix_modify holdem energy yes
min_style cg
minimize 1.0e-8 0.0 200000 2000000
WARNING: Using 'neigh_modify every 1 delay 0 check yes' setting during minimization (src/min.cpp:190)
Neighbor list info ...
  update every 1 steps, delay 0 steps, check yes
  max neighbors/atom: 2000, page size: 100000
  master list distance cutoff = 12
  ghost atom cutoff = 12
  binsize = 6, bins = 17 17 17
  2 neighbor lists, perpetual/occasional/extra = 2 0 0
  (1) pair reax/c, perpetual
      attributes: half, newton off, ghost
      pair build: half/bin/newtoff/ghost
      stencil: half/ghost/bin/3d/newtoff
      bin: standard
  (2) fix qeq/reax, perpetual, copy from (1)
      attributes: half, newton off, ghost
      pair build: copy
      stencil: none
      bin: none
Per MPI rank memory allocation (min/avg/max) = 11.52 | 11.52 | 11.52 Mbytes
Step TotEng KinEng PotEng Temp Press Pxx Pyy Pzz 
       0    5654.7661            0    5654.7661            0   -4.3976212   -3.5654662   -4.6892476   -4.9381497 
     156   -1813.3669            0   -1813.3669            0   0.25759346   0.38214791   0.13069019   0.25994227 
Loop time of 0.0976277 on 1 procs for 156 steps with 18 atoms

96.0% CPU use with 1 MPI tasks x 1 OpenMP threads

Minimization stats:
  Stopping criterion = energy tolerance
  Energy initial, next-to-last, final = 
         5654.76610804     -1813.36689004     -1813.36691912
  Force two-norm initial, final = 10977.4 5.76375
  Force max component initial, final = 5164.95 2.97143
  Final line search alpha, max atom move = 0.000231077 0.000686629
  Iterations, force evaluations = 156 324

MPI task timing breakdown:
Section |  min time  |  avg time  |  max time  |%varavg| %total
---------------------------------------------------------------
Pair    | 0.083371   | 0.083371   | 0.083371   |   0.0 | 85.40
Neigh   | 7.35e-05   | 7.35e-05   | 7.35e-05   |   0.0 |  0.08
Comm    | 0.0009833  | 0.0009833  | 0.0009833  |   0.0 |  1.01
Output  | 0          | 0          | 0          |   0.0 |  0.00
Modify  | 0.011387   | 0.011387   | 0.011387   |   0.0 | 11.66
Other   |            | 0.001814   |            |       |  1.86

Nlocal:    18 ave 18 max 18 min
Histogram: 1 0 0 0 0 0 0 0 0 0
Nghost:    126 ave 126 max 126 min
Histogram: 1 0 0 0 0 0 0 0 0 0
Neighs:    289 ave 289 max 289 min
Histogram: 1 0 0 0 0 0 0 0 0 0

Total # of neighbors = 289
Ave neighs/atom = 16.0556
Neighbor list builds = 1
Dangerous builds = 0
undump DUMP2
unfix holdem
WARNING: lammps_gather_atoms: unknown property name (src/library.cpp:850)

Please see the log.cite file for references relevant to this simulation

Total wall time: 0:00:00
