ITEM: TIMESTEP
0
ITEM: NUMBER OF ATOMS
51
ITEM: BOX BOUNDS pp pp pp
0.0000000000000000e+00 1.0000000000000000e+02
0.0000000000000000e+00 1.0000000000000000e+02
0.0000000000000000e+00 1.0000000000000000e+02
ITEM: ATOMS id type x y z q 
12 4 0.86698 0.24462 1.23076 -1.03498 
40 4 4.50414 1.25758 0.3151 -0.901804 
41 3 4.43193 1.04309 1.26907 0.393746 
44 4 3.58125 4.36695 0.26222 -0.863094 
45 3 3.10525 5.09228 0.67097 0.371165 
48 4 3.70373 0.30844 2.79269 -0.882617 
49 3 4.03239 0.59051 3.65327 0.354167 
17 4 94.5531 3.68028 0.05984 -0.636348 
18 4 94.2328 1.08545 0.81639 -0.699595 
20 4 95.9601 0.60192 2.98173 -0.651473 
28 3 95.2189 0.84544 2.39047 0.40323 
29 3 93.956 0.21773 0.45311 0.390391 
31 3 95.3715 4.12226 0.31086 0.35339 
32 3 99.1638 0.10482 2.53314 0.344668 
13 2 2.16734 99.1511 2.23145 1.97312 
46 4 2.79971 97.7705 0.92916 -0.972044 
47 3 2.84693 96.7952 0.86834 0.397308 
50 4 1.20316 98.4317 3.7544 -0.831809 
51 3 0.25203 98.5526 3.9275 0.396593 
2 4 97.3559 99.9372 0.73154 -0.747933 
7 1 97.0482 99.5993 2.29443 1.21913 
19 4 96.494 98.027 2.26095 -0.694738 
21 4 98.4873 99.6881 3.10045 -0.658517 
27 3 96.0706 97.3974 0.54609 0.415729 
33 3 95.9436 97.7437 2.99954 0.348615 
6 2 0.64266 0.57559 99.2467 2.00186 
14 4 1.84023 2.08882 98.8519 -1.00892 
15 2 3.68618 2.71423 99.2358 2.02113 
42 4 4.69582 2.91089 97.573 -0.838877 
43 3 5.05284 3.52807 96.93 0.371257 
16 4 93.6974 1.76732 98.3428 -0.680345 
1 1 97.2364 0.50373 99.1976 1.30715 
3 4 96.2865 1.8573 99.2101 -0.681578 
5 4 98.733 0.87374 98.691 -0.814156 
8 1 94.7067 2.11319 99.6091 1.2015 
30 3 93.7592 2.34318 97.5726 0.345403 
10 4 1.42074 98.9765 98.4959 -1.00598 
11 2 3.08134 97.8014 98.4281 2.04072 
34 4 3.27633 97.3519 96.5224 -0.813882 
35 3 3.88152 97.644 95.8337 0.367493 
36 4 4.62207 98.9366 98.7751 -0.853778 
37 3 4.81737 99.6974 99.3585 0.411426 
38 4 3.02671 95.9249 99.204 -0.814628 
39 3 3.11436 95.1181 98.6848 0.353107 
25 3 93.6111 99.6328 98.3972 0.385508 
4 4 96.5302 99.3435 98.2809 -0.687025 
9 1 95.3481 98.2028 98.5344 1.21925 
22 4 95.0261 97.4787 97.0997 -0.628217 
23 4 93.9592 98.9795 99.0264 -0.693828 
24 4 95.7801 97.113 99.6598 -0.650046 
26 3 95.7877 97.1319 96.6225 0.359164 
ITEM: TIMESTEP
119
ITEM: NUMBER OF ATOMS
51
ITEM: BOX BOUNDS pp pp pp
0.0000000000000000e+00 1.0000000000000000e+02
0.0000000000000000e+00 1.0000000000000000e+02
0.0000000000000000e+00 1.0000000000000000e+02
ITEM: ATOMS id type x y z q 
12 4 0.902015 0.18251 1.14218 -1.11954 
40 4 4.2785 1.33912 0.1351 -0.951833 
41 3 4.34854 1.02827 1.03095 0.405593 
44 4 3.52469 4.35768 0.17441 -0.896706 
45 3 2.96897 4.97463 0.587422 0.377307 
48 4 3.60825 0.213945 2.61807 -0.938035 
49 3 4.06077 0.495111 3.38453 0.371737 
17 4 94.5131 3.63275 -0.0672128 -0.650732 
18 4 94.1886 1.06853 0.747243 -0.704191 
20 4 95.9937 0.615491 2.78826 -0.641873 
28 3 95.4372 0.95908 2.07614 0.401339 
29 3 94.1187 0.141627 0.416839 0.373775 
31 3 95.2892 4.07481 0.266832 0.357937 
32 3 99.2599 -0.101908 2.6191 0.339515 
13 2 2.10619 99.1207 2.12486 2.12664 
46 4 2.66707 97.7234 0.881701 -1.06609 
47 3 2.82818 96.7809 0.906153 0.382187 
50 4 1.14882 98.4323 3.6282 -0.88975 
51 3 0.29388 98.4793 3.99468 0.425697 
2 4 97.5669 99.7636 0.711546 -0.76918 
7 1 97.1237 99.5186 2.26086 1.17154 
19 4 96.4579 97.981 2.35831 -0.680661 
21 4 98.521 99.6394 3.17064 -0.648216 
27 3 96.1572 97.5996 0.504997 0.409944 
33 3 95.9313 97.8565 3.1498 0.358744 
6 2 0.59145 0.641672 99.3278 2.18983 
14 4 1.69514 2.12252 99.0518 -1.12998 
15 2 3.428 2.75305 99.1618 2.19185 
42 4 4.31764 2.98708 97.4962 -0.888212 
43 3 5.03946 3.4439 97.1312 0.385856 
16 4 94.0493 1.67612 98.1811 -0.711197 
1 1 97.2569 0.471411 99.2768 1.30233 
3 4 96.3842 1.83683 99.5089 -0.710434 
5 4 98.7463 0.853165 98.7054 -0.844106 
8 1 94.7907 2.05795 99.5875 1.21331 
30 3 93.707 2.44588 97.7199 0.359976 
10 4 1.56108 99.1287 98.6848 -1.07233 
11 2 2.96012 97.8016 98.6612 2.19054 
34 4 3.17381 97.4938 96.7326 -0.829144 
35 3 3.76977 97.6813 96.0471 0.38947 
36 4 4.55027 98.891 98.9784 -0.858801 
37 3 4.78399 99.6948 99.4189 0.427661 
38 4 2.97086 95.8852 99.0884 -0.864802 
39 3 3.09247 95.0689 98.6654 0.384946 
25 3 93.854 99.852 98.4929 0.401616 
4 4 96.5329 99.4127 98.2718 -0.709448 
9 1 95.4063 98.2953 98.5171 1.2424 
22 4 95.1524 97.5068 97.1035 -0.617267 
23 4 94.0109 99.01 98.9744 -0.701585 
24 4 95.9056 97.2317 99.6499 -0.651352 
26 3 95.9457 97.1442 96.7209 0.363713 
