ITEM: TIMESTEP
0
ITEM: NUMBER OF ATOMS
51
ITEM: BOX BOUNDS pp pp pp
0.0000000000000000e+00 1.0000000000000000e+02
0.0000000000000000e+00 1.0000000000000000e+02
0.0000000000000000e+00 1.0000000000000000e+02
ITEM: ATOMS id type x y z q 
12 4 1.33 0.26554 0.76121 -1.0216 
41 3 4.81314 1.17512 0.13809 0.394121 
48 4 4.41038 0.38996 1.75448 -0.882768 
49 3 4.8898 0.66635 2.54312 0.35355 
17 4 94.5531 3.68028 0.05984 -0.636282 
18 4 94.2328 1.08545 0.81639 -0.700503 
20 4 95.9601 0.60192 2.98173 -0.65318 
28 3 95.2189 0.84544 2.39047 0.401929 
29 3 93.956 0.21773 0.45311 0.38963 
31 3 95.3715 4.12226 0.31086 0.352823 
32 3 99.1638 0.10482 2.53314 0.329441 
13 2 2.8273 99.1953 1.46886 1.97029 
46 4 3.23638 97.8595 0.03698 -0.971973 
50 4 2.19247 98.4179 3.12997 -0.830135 
51 3 1.2891 98.5056 3.48416 0.366436 
2 4 97.3559 99.9372 0.73154 -0.738782 
7 1 97.0482 99.5993 2.29443 1.2174 
19 4 96.494 98.027 2.26095 -0.691281 
21 4 98.4873 99.6881 3.10045 -0.623758 
27 3 96.0706 97.3974 0.54609 0.41612 
33 3 95.9436 97.7437 2.99954 0.347325 
6 2 0.72115 0.62575 98.8649 2.00176 
14 4 1.77911 2.18298 98.2856 -1.00862 
15 2 3.64655 2.85907 98.3253 2.02208 
40 4 4.69555 1.4093 99.1933 -0.901576 
42 4 4.31355 3.11805 96.5056 -0.839012 
43 3 4.52386 3.7579 95.8214 0.370886 
44 4 3.69471 4.48849 99.3924 -0.863094 
45 3 3.28602 5.19082 99.9018 0.371315 
16 4 93.6974 1.76732 98.3428 -0.679952 
1 1 97.2364 0.50373 99.1976 1.31861 
3 4 96.2865 1.8573 99.2101 -0.683076 
5 4 98.733 0.87374 98.691 -0.822743 
8 1 94.7067 2.11319 99.6091 1.19937 
30 3 93.7592 2.34318 97.5726 0.345602 
10 4 1.38472 99.066 97.9411 -1.00688 
11 2 3.03325 97.9453 97.5297 2.04093 
34 4 2.8722 97.5374 95.6114 -0.814378 
35 3 3.32617 97.861 94.8272 0.367481 
36 4 4.58019 99.1219 97.6036 -0.853233 
37 3 4.86259 99.8777 98.1573 0.411699 
38 4 3.17958 96.0541 98.2563 -0.815128 
39 3 3.18833 95.2602 97.7106 0.352617 
47 3 3.29782 96.8875 99.9448 0.396751 
25 3 93.6111 99.6328 98.3972 0.385631 
4 4 96.5302 99.3435 98.2809 -0.690789 
9 1 95.3481 98.2028 98.5344 1.2185 
22 4 95.0261 97.4787 97.0997 -0.627895 
23 4 93.9592 98.9795 99.0264 -0.69466 
24 4 95.7801 97.113 99.6598 -0.650444 
26 3 95.7877 97.1319 96.6225 0.359454 
ITEM: TIMESTEP
108
ITEM: NUMBER OF ATOMS
51
ITEM: BOX BOUNDS pp pp pp
0.0000000000000000e+00 1.0000000000000000e+02
0.0000000000000000e+00 1.0000000000000000e+02
0.0000000000000000e+00 1.0000000000000000e+02
ITEM: ATOMS id type x y z q 
12 4 1.29423 0.221233 0.58767 -1.09869 
41 3 4.69301 1.1583 -0.100542 0.408577 
48 4 4.18256 0.292787 1.49971 -0.931912 
49 3 4.82896 0.547139 2.12876 0.363753 
17 4 94.4966 3.63113 -0.0825014 -0.653064 
18 4 94.2478 1.08324 0.7868 -0.71488 
20 4 96.1131 0.606344 2.79025 -0.663774 
28 3 95.4432 0.91559 2.15755 0.404268 
29 3 94.0429 0.173884 0.455946 0.380747 
31 3 95.2479 4.09571 0.275452 0.35534 
32 3 99.1654 0.110281 2.812 0.33428 
13 2 2.62934 99.1502 1.3703 2.12093 
46 4 3.00953 97.7704 0.0336725 -1.06246 
50 4 2.11527 98.4185 3.06118 -0.892787 
51 3 1.36175 98.3245 3.59754 0.398027 
2 4 97.6019 99.8517 0.702815 -0.753327 
7 1 97.1565 99.4923 2.20667 1.23403 
19 4 96.4181 98.025 2.21552 -0.715193 
21 4 98.5231 99.4699 3.11165 -0.643872 
27 3 96.0706 97.527 0.563052 0.420444 
33 3 95.9639 97.7883 3.02802 0.356744 
6 2 0.729695 0.739875 98.8469 2.16692 
14 4 1.70991 2.27615 98.4359 -1.12731 
15 2 3.43336 2.9327 98.2765 2.1839 
40 4 4.45342 1.49217 99.033 -0.948562 
42 4 3.97802 3.24033 96.4785 -0.890337 
43 3 4.60543 3.72785 95.9976 0.380903 
44 4 3.66757 4.50205 99.3253 -0.897517 
45 3 3.17282 5.10119 99.833 0.37487 
16 4 93.9968 1.65002 98.2096 -0.713174 
1 1 97.2597 0.488297 99.2416 1.32546 
3 4 96.3819 1.86071 99.408 -0.706845 
5 4 98.7428 0.84687 98.6453 -0.833159 
8 1 94.7912 2.05605 99.5831 1.21904 
30 3 93.6837 2.40813 97.7044 0.35688 
10 4 1.62617 99.2571 98.0358 -1.06696 
11 2 3.01281 97.9338 97.8003 2.18957 
34 4 2.86415 97.65 95.8611 -0.830274 
35 3 3.2776 97.9087 95.0723 0.385654 
36 4 4.61336 99.0517 97.8769 -0.859094 
37 3 4.89201 99.8795 98.2523 0.429247 
38 4 3.14056 96.0121 98.1875 -0.863472 
39 3 3.18026 95.2021 97.7362 0.381664 
47 3 3.20626 96.8317 100.027 0.383982 
25 3 93.8008 99.8231 98.4696 0.401982 
4 4 96.5507 99.3854 98.2787 -0.714365 
9 1 95.401 98.3002 98.5474 1.24638 
22 4 95.1153 97.5237 97.1318 -0.622036 
23 4 94.019 99.0354 99.0222 -0.711571 
24 4 95.8865 97.2037 99.6527 -0.652054 
26 3 95.893 97.1361 96.7399 0.36307 
