ITEM: TIMESTEP
0
ITEM: NUMBER OF ATOMS
51
ITEM: BOX BOUNDS pp pp pp
0.0000000000000000e+00 1.0000000000000000e+02
0.0000000000000000e+00 1.0000000000000000e+02
0.0000000000000000e+00 1.0000000000000000e+02
ITEM: ATOMS id type x y z q 
12 4 0.44843 0.24497 1.53037 -1.0598 
40 4 4.20498 1.16149 1.15384 -0.901961 
41 3 3.98613 0.96616 2.08939 0.393742 
44 4 3.37607 4.28873 0.91731 -0.863282 
45 3 2.86219 5.03164 1.23945 0.370802 
48 4 3.02123 0.27561 3.49776 -0.882457 
49 3 3.22462 0.56619 4.39351 0.354938 
17 4 94.5531 3.68028 0.05984 -0.636191 
18 4 94.2328 1.08545 0.81639 -0.6987 
20 4 95.9601 0.60192 2.98173 -0.652521 
28 3 95.2189 0.84544 2.39047 0.404678 
29 3 93.956 0.21773 0.45311 0.391275 
31 3 95.3715 4.12226 0.31086 0.353487 
32 3 99.1638 0.10482 2.53314 0.386549 
13 2 1.55807 99.1419 2.7304 1.97719 
37 3 4.61939 99.5776 0.27819 0.411093 
46 4 2.34388 97.7242 1.55798 -0.972181 
47 3 2.37596 96.7472 1.51943 0.397495 
50 4 0.36037 98.4717 4.10259 -0.830758 
2 4 97.3559 99.9372 0.73154 -0.754791 
7 1 97.0482 99.5993 2.29443 1.22046 
19 4 96.494 98.027 2.26095 -0.700837 
21 4 98.4873 99.6881 3.10045 -0.717403 
27 3 96.0706 97.3974 0.54609 0.41544 
33 3 95.9436 97.7437 2.99954 0.347312 
51 3 99.3973 98.6165 4.12972 0.440736 
6 2 0.53062 0.5443 99.5303 2.00479 
14 4 1.81005 2.02359 99.2966 -1.00962 
15 2 3.59273 2.61557 99.9429 2.02051 
42 4 4.84355 2.75967 98.4469 -0.839168 
43 3 5.30734 3.35703 97.8554 0.371108 
16 4 93.6974 1.76732 98.3428 -0.680592 
1 1 97.2364 0.50373 99.1976 1.29483 
3 4 96.2865 1.8573 99.2101 -0.680596 
5 4 98.733 0.87374 98.691 -0.80644 
8 1 94.7067 2.11319 99.6091 1.20355 
30 3 93.7592 2.34318 97.5726 0.344838 
10 4 1.37291 98.9151 98.9282 -1.00545 
11 2 2.99602 97.7031 99.127 2.04098 
34 4 3.46208 97.2146 97.2787 -0.813893 
35 3 4.17011 97.4808 96.684 0.367024 
36 4 4.49487 98.8106 99.6835 -0.854386 
38 4 2.78075 95.8428 99.9138 -0.814306 
39 3 2.92523 95.0249 99.4256 0.353408 
25 3 93.6111 99.6328 98.3972 0.385295 
4 4 96.5302 99.3435 98.2809 -0.683989 
9 1 95.3481 98.2028 98.5344 1.22023 
22 4 95.0261 97.4787 97.0997 -0.628502 
23 4 93.9592 98.9795 99.0264 -0.692861 
24 4 95.7801 97.113 99.6598 -0.6498 
26 3 95.7877 97.1319 96.6225 0.358714 
ITEM: TIMESTEP
128
ITEM: NUMBER OF ATOMS
51
ITEM: BOX BOUNDS pp pp pp
0.0000000000000000e+00 1.0000000000000000e+02
0.0000000000000000e+00 1.0000000000000000e+02
0.0000000000000000e+00 1.0000000000000000e+02
ITEM: ATOMS id type x y z q 
12 4 0.674726 0.137529 1.523 -1.09825 
40 4 4.00265 1.25036 0.892281 -0.951928 
41 3 3.94868 0.941962 1.78786 0.39967 
44 4 3.28086 4.28449 0.827317 -0.894157 
45 3 2.68438 4.93226 1.12253 0.377109 
48 4 3.15301 0.143861 3.39329 -0.927905 
49 3 3.43828 0.532405 4.19079 0.370656 
17 4 94.4995 3.68373 -0.183642 -0.649584 
18 4 94.0723 1.14404 0.663496 -0.703396 
20 4 95.7844 0.54401 2.75221 -0.642551 
28 3 95.3105 0.931653 2.00255 0.401588 
29 3 93.9495 0.229477 0.327314 0.374909 
31 3 95.2418 4.13427 0.213804 0.358983 
32 3 99.1005 -0.00590891 2.79378 0.341964 
13 2 1.70643 99.0485 2.71708 2.07705 
37 3 4.56618 99.5814 0.271556 0.425567 
46 4 2.32954 97.6169 1.48083 -1.0367 
47 3 2.39419 96.6622 1.47728 0.380478 
50 4 0.417739 98.3898 3.9856 -0.878686 
2 4 97.5272 99.7103 0.795445 -0.781174 
7 1 97.008 99.5131 2.32539 1.17666 
19 4 96.45 97.9446 2.43871 -0.681254 
21 4 98.3172 99.7886 3.31839 -0.667365 
27 3 96.199 97.6241 0.548708 0.409126 
33 3 95.8393 97.8183 3.16664 0.359867 
51 3 99.5056 98.5144 4.17527 0.442062 
6 2 0.487476 0.563585 99.6699 2.19818 
14 4 1.60576 2.04845 99.48 -1.12395 
15 2 3.3112 2.67484 99.812 2.1881 
42 4 4.43102 2.88432 98.2851 -0.886207 
43 3 5.26106 3.23838 98.0565 0.384339 
16 4 94.1714 1.68993 98.0898 -0.707566 
1 1 97.25 0.470253 99.3795 1.29132 
3 4 96.3941 1.84456 99.6509 -0.708487 
5 4 98.757 0.837433 98.8586 -0.850022 
8 1 94.8028 2.09419 99.5439 1.20552 
30 3 93.6752 2.42324 97.7083 0.358534 
10 4 1.48064 99.022 99.1349 -1.06805 
11 2 2.85856 97.6843 99.2909 2.19205 
34 4 3.34922 97.3637 97.4218 -0.832814 
35 3 4.0381 97.5474 96.8286 0.388926 
36 4 4.39385 98.7617 99.8325 -0.860122 
38 4 2.71947 95.7752 99.7213 -0.867569 
39 3 2.88205 94.9489 99.3308 0.385528 
25 3 93.919 99.8772 98.4527 0.39472 
4 4 96.54 99.4402 98.3301 -0.704071 
9 1 95.4299 98.2987 98.5482 1.24384 
22 4 95.2381 97.4869 97.1371 -0.616418 
23 4 94.0184 99.0246 98.9338 -0.700407 
24 4 95.9182 97.2526 99.7033 -0.652053 
26 3 96.0484 97.1487 96.7674 0.36396 
