ITEM: TIMESTEP
0
ITEM: NUMBER OF ATOMS
51
ITEM: BOX BOUNDS pp pp pp
0.0000000000000000e+00 1.0000000000000000e+02
0.0000000000000000e+00 1.0000000000000000e+02
0.0000000000000000e+00 1.0000000000000000e+02
ITEM: ATOMS id type x y z q 
17 4 94.5531 3.68028 0.05984 -0.635448 
18 4 94.2328 1.08545 0.81639 -0.70187 
20 4 95.9601 0.60192 2.98173 -0.658174 
28 3 95.2189 0.84544 2.39047 0.399966 
29 3 93.956 0.21773 0.45311 0.388822 
31 3 95.3715 4.12226 0.31086 0.351259 
32 3 99.1638 0.10482 2.53314 0.341317 
50 4 3.93396 98.4938 0.9247 -0.832283 
51 3 3.28724 98.5073 1.65325 0.347386 
2 4 97.3559 99.9372 0.73154 -0.719773 
7 1 97.0482 99.5993 2.29443 1.21566 
19 4 96.494 98.027 2.26095 -0.689586 
21 4 98.4873 99.6881 3.10045 -0.609164 
27 3 96.0706 97.3974 0.54609 0.416546 
33 3 95.9436 97.7437 2.99954 0.343558 
43 3 2.45754 4.24548 93.7064 0.36977 
35 3 1.19505 98.3222 92.9874 0.36672 
6 2 0.59181 0.75391 97.9327 2.00384 
12 4 2.01059 0.36556 99.3229 -1.00892 
14 4 1.20271 2.39921 97.0384 -1.00942 
15 2 2.85321 3.19756 96.2739 2.02444 
37 3 3.98778 0.31305 95.3861 0.411757 
40 4 4.2436 1.79057 96.481 -0.901801 
41 3 4.78755 1.53003 97.254 0.394545 
42 4 2.60888 3.56803 94.3696 -0.840038 
44 4 3.31038 4.78591 97.3055 -0.863698 
45 3 3.14777 5.43979 97.9879 0.371345 
48 4 5.19739 0.66025 98.8246 -0.881402 
49 3 5.9703 0.93891 99.3278 0.353342 
16 4 93.6974 1.76732 98.3428 -0.679515 
1 1 97.2364 0.50373 99.1976 1.32839 
3 4 96.2865 1.8573 99.2101 -0.687693 
5 4 98.733 0.87374 98.691 -0.83429 
8 1 94.7067 2.11319 99.6091 1.19769 
30 3 93.7592 2.34318 97.5726 0.345585 
10 4 0.83004 99.2777 96.7119 -1.00986 
11 2 2.15843 98.2865 95.5304 2.04144 
13 2 3.71064 99.3731 99.209 1.96887 
34 4 1.16134 97.9399 93.8698 -0.817062 
36 4 3.51766 99.561 94.9728 -0.852779 
38 4 2.70047 96.3838 95.991 -0.816399 
39 3 2.49467 95.613 95.4509 0.351298 
46 4 3.48191 98.1218 97.665 -0.97107 
47 3 3.53671 97.1603 97.4935 0.395739 
25 3 93.6111 99.6328 98.3972 0.385815 
4 4 96.5302 99.3435 98.2809 -0.700812 
9 1 95.3481 98.2028 98.5344 1.22002 
22 4 95.0261 97.4787 97.0997 -0.626153 
23 4 93.9592 98.9795 99.0264 -0.695836 
24 4 95.7801 97.113 99.6598 -0.651559 
26 3 95.7877 97.1319 96.6225 0.359478 
ITEM: TIMESTEP
95
ITEM: NUMBER OF ATOMS
51
ITEM: BOX BOUNDS pp pp pp
0.0000000000000000e+00 1.0000000000000000e+02
0.0000000000000000e+00 1.0000000000000000e+02
0.0000000000000000e+00 1.0000000000000000e+02
ITEM: ATOMS id type x y z q 
17 4 94.5427 3.63179 -0.0576776 -0.645499 
18 4 94.2448 1.07808 0.769531 -0.714887 
20 4 96.0148 0.552539 2.84908 -0.663575 
28 3 95.3915 0.891153 2.19026 0.402603 
29 3 94.0738 0.171654 0.433213 0.377628 
31 3 95.3457 4.0441 0.252987 0.354001 
32 3 99.1826 0.0762403 2.64328 0.346829 
50 4 3.79697 98.5178 0.840367 -0.890929 
51 3 3.39349 98.4269 1.67133 0.379762 
2 4 97.4902 99.8864 0.706679 -0.747968 
7 1 97.1137 99.5121 2.22612 1.2302 
19 4 96.4539 98.0078 2.25192 -0.702833 
21 4 98.503 99.5792 3.0874 -0.627377 
27 3 96.1387 97.5827 0.511443 0.417373 
33 3 95.9568 97.825 3.05027 0.356166 
43 3 2.56011 4.22546 93.8643 0.383112 
35 3 1.24543 98.3181 93.175 0.388652 
6 2 0.508098 0.822643 97.9109 2.19501 
12 4 1.88464 0.324492 99.1301 -1.10109 
14 4 1.21077 2.38562 97.1541 -1.13015 
15 2 2.66666 3.17231 96.3279 2.1941 
37 3 3.99823 0.309176 95.4289 0.427221 
40 4 4.02886 1.84455 96.5002 -0.953307 
41 3 4.6336 1.52198 97.1556 0.4091 
42 4 2.36953 3.56587 94.4895 -0.885719 
44 4 3.23613 4.74863 97.2266 -0.89737 
45 3 3.0131 5.27459 97.9583 0.374537 
48 4 4.97219 0.596508 98.8184 -0.935415 
49 3 5.8042 0.826304 99.1733 0.3729 
16 4 93.9199 1.67244 98.2226 -0.711605 
1 1 97.2499 0.500523 99.2123 1.33837 
3 4 96.343 1.8543 99.3128 -0.712105 
5 4 98.7148 0.903883 98.6014 -0.890373 
8 1 94.7692 2.05492 99.5652 1.21524 
30 3 93.7407 2.42668 97.6585 0.359082 
10 4 0.974227 99.4189 96.6943 -1.06646 
11 2 2.20108 98.2713 95.7414 2.18984 
13 2 3.51662 99.3866 99.1596 2.12564 
34 4 1.23125 98.0179 94.0525 -0.830598 
36 4 3.55979 99.5304 95.1238 -0.860156 
38 4 2.6059 96.362 95.9375 -0.870111 
39 3 2.51904 95.5699 95.4637 0.383273 
46 4 3.32303 98.1303 97.675 -1.06405 
47 3 3.53182 97.2128 97.4942 0.378399 
25 3 93.8307 99.8327 98.5148 0.400129 
4 4 96.563 99.3792 98.2453 -0.72786 
9 1 95.4081 98.2952 98.5187 1.24411 
22 4 95.1081 97.5143 97.1106 -0.618266 
23 4 94.0227 99.007 99.008 -0.707528 
24 4 95.9056 97.2196 99.6396 -0.650201 
26 3 95.8821 97.1394 96.7023 0.362151 
