ITEM: TIMESTEP
0
ITEM: NUMBER OF ATOMS
51
ITEM: BOX BOUNDS pp pp pp
0.0000000000000000e+00 1.0000000000000000e+02
0.0000000000000000e+00 1.0000000000000000e+02
0.0000000000000000e+00 1.0000000000000000e+02
ITEM: ATOMS id type x y z q 
12 4 1.14428 0.25374 0.97165 -1.02591 
41 3 4.67816 1.11465 0.6275 0.393934 
45 3 3.22762 5.14626 0.23275 0.371283 
48 4 4.13469 0.35002 2.21223 -0.882781 
49 3 4.55169 0.6281 3.03502 0.353739 
17 4 94.5531 3.68028 0.05984 -0.63635 
18 4 94.2328 1.08545 0.81639 -0.700142 
20 4 95.9601 0.60192 2.98173 -0.652269 
28 3 95.2189 0.84544 2.39047 0.402424 
29 3 93.956 0.21773 0.45311 0.389902 
31 3 95.3715 4.12226 0.31086 0.353111 
32 3 99.1638 0.10482 2.53314 0.332494 
13 2 2.56484 99.1721 1.80845 1.97135 
46 4 3.07205 97.8178 0.42629 -0.972041 
47 3 3.1282 96.8443 0.34776 0.397006 
50 4 1.78654 98.4185 3.41872 -0.83039 
51 3 0.85848 98.5206 3.69713 0.375969 
2 4 97.3559 99.9372 0.73154 -0.742584 
7 1 97.0482 99.5993 2.29443 1.21796 
19 4 96.494 98.027 2.26095 -0.692351 
21 4 98.4873 99.6881 3.10045 -0.634307 
27 3 96.0706 97.3974 0.54609 0.415968 
33 3 95.9436 97.7437 2.99954 0.348042 
6 2 0.69694 0.60314 99.0289 2.00155 
14 4 1.81875 2.14169 98.5246 -1.00868 
15 2 3.68534 2.79526 98.7111 2.02167 
40 4 4.64111 1.34117 99.6743 -0.901659 
42 4 4.50191 3.02858 96.9498 -0.838893 
43 3 4.77564 3.65922 96.2796 0.371086 
44 4 3.66737 4.43413 99.7645 -0.863068 
16 4 93.6974 1.76732 98.3428 -0.680124 
1 1 97.2364 0.50373 99.1976 1.31429 
3 4 96.2865 1.8573 99.2101 -0.682403 
5 4 98.733 0.87374 98.691 -0.819304 
8 1 94.7067 2.11319 99.6091 1.2002 
30 3 93.7592 2.34318 97.5726 0.34558 
10 4 1.4134 99.0267 98.1759 -1.00648 
11 2 3.07534 97.882 97.9101 2.04079 
34 4 3.06609 97.4576 95.9887 -0.814101 
35 3 3.58671 97.7682 95.2414 0.367549 
36 4 4.62621 99.0402 98.1001 -0.853434 
37 3 4.87227 99.7977 98.6685 0.411608 
38 4 3.13735 95.9962 98.6624 -0.814902 
39 3 3.18031 95.197 98.1261 0.35283 
25 3 93.6111 99.6328 98.3972 0.385599 
4 4 96.5302 99.3435 98.2809 -0.689198 
9 1 95.3481 98.2028 98.5344 1.21874 
22 4 95.0261 97.4787 97.0997 -0.628036 
23 4 93.9592 98.9795 99.0264 -0.694348 
24 4 95.7801 97.113 99.6598 -0.650259 
26 3 95.7877 97.1319 96.6225 0.359359 
ITEM: TIMESTEP
15
ITEM: NUMBER OF ATOMS
51
ITEM: BOX BOUNDS pp pp pp
0.0000000000000000e+00 1.0000000000000000e+02
0.0000000000000000e+00 1.0000000000000000e+02
0.0000000000000000e+00 1.0000000000000000e+02
ITEM: ATOMS id type x y z q 
12 4 1.24893 0.20933 0.815737 -1.10316 
41 3 4.693 1.12549 0.548879 0.408156 
45 3 3.18587 5.00827 0.146659 0.368357 
48 4 4.04847 0.296092 2.18272 -0.930444 
49 3 4.51169 0.592006 2.94193 0.369332 
17 4 94.5591 3.6353 0.0425631 -0.647504 
18 4 94.2586 1.07265 0.798559 -0.715217 
20 4 95.9401 0.558124 2.94271 -0.653823 
28 3 95.246 0.866861 2.32557 0.406379 
29 3 93.9831 0.194577 0.439398 0.388701 
31 3 95.3589 4.0822 0.29953 0.353315 
32 3 99.1587 0.105444 2.55379 0.331265 
13 2 2.54767 99.1834 1.70801 2.12641 
46 4 2.99863 97.8613 0.340489 -1.05745 
47 3 3.15025 96.9134 0.298722 0.377625 
50 4 1.74678 98.4797 3.2946 -0.891146 
51 3 0.933842 98.4762 3.73903 0.408141 
2 4 97.417 99.9738 0.748423 -0.756702 
7 1 97.0537 99.5582 2.26415 1.22803 
19 4 96.4667 98.0175 2.23863 -0.705954 
21 4 98.4776 99.6688 3.07855 -0.641348 
27 3 96.0642 97.4501 0.547499 0.414808 
33 3 95.9571 97.7767 3.02215 0.350025 
6 2 0.712989 0.643502 99.0343 2.13672 
14 4 1.88279 2.06689 98.6396 -1.11999 
15 2 3.60763 2.76571 98.704 2.17385 
40 4 4.50207 1.37072 99.6509 -0.947089 
42 4 4.4251 2.98324 96.9929 -0.880858 
43 3 4.72167 3.65713 96.427 0.378328 
44 4 3.7236 4.38715 99.7108 -0.896402 
16 4 93.7762 1.71863 98.3226 -0.699596 
1 1 97.2086 0.496167 99.2108 1.31584 
3 4 96.2877 1.84211 99.2108 -0.707843 
5 4 98.7253 0.873843 98.6715 -0.82451 
8 1 94.7397 2.07245 99.5994 1.23108 
30 3 93.7814 2.36485 97.623 0.351269 
10 4 1.52502 99.1071 98.2458 -1.05889 
11 2 3.02013 97.9039 98.0719 2.19352 
34 4 3.07125 97.5261 96.1399 -0.828393 
35 3 3.54159 97.7591 95.3781 0.390415 
36 4 4.55611 99.0818 98.1718 -0.869842 
37 3 4.87874 99.8164 98.67 0.431035 
38 4 3.1241 96.0146 98.5695 -0.874435 
39 3 3.18067 95.1775 98.1713 0.383176 
25 3 93.6506 99.6824 98.4316 0.390571 
4 4 96.5517 99.325 98.2938 -0.716454 
9 1 95.3704 98.272 98.5534 1.24469 
22 4 95.0394 97.5233 97.1306 -0.628541 
23 4 93.9866 98.9938 99.0391 -0.711691 
24 4 95.8238 97.1422 99.6511 -0.646268 
26 3 95.7879 97.1529 96.6723 0.362509 
