ITEM: TIMESTEP
0
ITEM: NUMBER OF ATOMS
51
ITEM: BOX BOUNDS pp pp pp
0.0000000000000000e+00 1.0000000000000000e+02
0.0000000000000000e+00 1.0000000000000000e+02
0.0000000000000000e+00 1.0000000000000000e+02
ITEM: ATOMS id type x y z q 
17 4 94.5531 3.68028 0.05984 -0.635448 
18 4 94.2328 1.08545 0.81639 -0.70187 
20 4 95.9601 0.60192 2.98173 -0.658174 
28 3 95.2189 0.84544 2.39047 0.399966 
29 3 93.956 0.21773 0.45311 0.388822 
31 3 95.3715 4.12226 0.31086 0.351259 
32 3 99.1638 0.10482 2.53314 0.341317 
50 4 3.93396 98.4938 0.9247 -0.832283 
51 3 3.28724 98.5073 1.65325 0.347386 
2 4 97.3559 99.9372 0.73154 -0.719773 
7 1 97.0482 99.5993 2.29443 1.21566 
19 4 96.494 98.027 2.26095 -0.689586 
21 4 98.4873 99.6881 3.10045 -0.609164 
27 3 96.0706 97.3974 0.54609 0.416546 
33 3 95.9436 97.7437 2.99954 0.343558 
43 3 2.45754 4.24548 93.7064 0.36977 
35 3 1.19505 98.3222 92.9874 0.36672 
6 2 0.59181 0.75391 97.9327 2.00384 
12 4 2.01059 0.36556 99.3229 -1.00892 
14 4 1.20271 2.39921 97.0384 -1.00942 
15 2 2.85321 3.19756 96.2739 2.02444 
37 3 3.98778 0.31305 95.3861 0.411757 
40 4 4.2436 1.79057 96.481 -0.901801 
41 3 4.78755 1.53003 97.254 0.394545 
42 4 2.60888 3.56803 94.3696 -0.840038 
44 4 3.31038 4.78591 97.3055 -0.863698 
45 3 3.14777 5.43979 97.9879 0.371345 
48 4 5.19739 0.66025 98.8246 -0.881402 
49 3 5.9703 0.93891 99.3278 0.353342 
16 4 93.6974 1.76732 98.3428 -0.679515 
1 1 97.2364 0.50373 99.1976 1.32839 
3 4 96.2865 1.8573 99.2101 -0.687693 
5 4 98.733 0.87374 98.691 -0.83429 
8 1 94.7067 2.11319 99.6091 1.19769 
30 3 93.7592 2.34318 97.5726 0.345585 
10 4 0.83004 99.2777 96.7119 -1.00986 
11 2 2.15843 98.2865 95.5304 2.04144 
13 2 3.71064 99.3731 99.209 1.96887 
34 4 1.16134 97.9399 93.8698 -0.817062 
36 4 3.51766 99.561 94.9728 -0.852779 
38 4 2.70047 96.3838 95.991 -0.816399 
39 3 2.49467 95.613 95.4509 0.351298 
46 4 3.48191 98.1218 97.665 -0.97107 
47 3 3.53671 97.1603 97.4935 0.395739 
25 3 93.6111 99.6328 98.3972 0.385815 
4 4 96.5302 99.3435 98.2809 -0.700812 
9 1 95.3481 98.2028 98.5344 1.22002 
22 4 95.0261 97.4787 97.0997 -0.626153 
23 4 93.9592 98.9795 99.0264 -0.695836 
24 4 95.7801 97.113 99.6598 -0.651559 
26 3 95.7877 97.1319 96.6225 0.359478 
ITEM: TIMESTEP
29
ITEM: NUMBER OF ATOMS
51
ITEM: BOX BOUNDS pp pp pp
0.0000000000000000e+00 1.0000000000000000e+02
0.0000000000000000e+00 1.0000000000000000e+02
0.0000000000000000e+00 1.0000000000000000e+02
ITEM: ATOMS id type x y z q 
17 4 94.538 3.62909 0.0158667 -0.645388 
18 4 94.2467 1.06026 0.802081 -0.717906 
20 4 95.9464 0.533083 2.91638 -0.663432 
28 3 95.2825 0.875705 2.29614 0.406482 
29 3 93.9976 0.171518 0.455119 0.386461 
31 3 95.3505 4.0515 0.28954 0.351911 
32 3 99.1465 0.0872296 2.59791 0.346862 
50 4 3.8296 98.5425 0.833114 -0.889751 
51 3 3.38778 98.4573 1.64605 0.379148 
2 4 97.4149 99.987 0.73412 -0.743033 
7 1 97.0598 99.5449 2.23833 1.238 
19 4 96.446 98.0193 2.22181 -0.711952 
21 4 98.4642 99.6244 3.0797 -0.626494 
27 3 96.0687 97.5023 0.565806 0.419041 
33 3 95.9614 97.7676 3.01267 0.35235 
43 3 2.50399 4.24471 93.8648 0.38074 
35 3 1.24228 98.3114 93.1489 0.388771 
6 2 0.622343 0.828479 97.88 2.13148 
12 4 1.9926 0.344016 99.1034 -1.09896 
14 4 1.28934 2.39084 97.0962 -1.12842 
15 2 2.77578 3.16278 96.3074 2.18673 
37 3 4.00911 0.329912 95.4039 0.426933 
40 4 4.10391 1.80331 96.5387 -0.953368 
41 3 4.75479 1.52874 97.1813 0.41008 
42 4 2.53134 3.5281 94.4545 -0.884111 
44 4 3.3148 4.74524 97.2125 -0.900447 
45 3 3.05979 5.28365 97.9245 0.372152 
48 4 5.08198 0.595522 98.8175 -0.93235 
49 3 5.8652 0.888654 99.2363 0.36942 
16 4 93.8055 1.65283 98.2926 -0.708403 
1 1 97.1994 0.507696 99.2062 1.3298 
3 4 96.2704 1.84773 99.2036 -0.708106 
5 4 98.6839 0.91355 98.6325 -0.816566 
8 1 94.7191 2.05674 99.5913 1.21683 
30 3 93.7708 2.35247 97.6365 0.352055 
10 4 0.977567 99.3846 96.682 -1.06196 
11 2 2.21567 98.2794 95.7066 2.18982 
13 2 3.61353 99.3869 99.128 2.12152 
34 4 1.24507 98.0015 94.0229 -0.829978 
36 4 3.52159 99.5864 95.0754 -0.862355 
38 4 2.63829 96.377 95.9289 -0.872905 
39 3 2.52451 95.5715 95.4812 0.381839 
46 4 3.36722 98.1475 97.6369 -1.06287 
47 3 3.5402 97.2211 97.4515 0.377026 
25 3 93.72 99.7995 98.4693 0.402531 
4 4 96.5563 99.3269 98.2783 -0.722517 
9 1 95.3663 98.2804 98.5571 1.24539 
22 4 95.0411 97.5182 97.145 -0.623884 
23 4 93.9886 99.0291 99.0289 -0.711866 
24 4 95.8419 97.1809 99.6664 -0.649958 
26 3 95.8006 97.1593 96.6978 0.363613 
