ITEM: TIMESTEP
0
ITEM: NUMBER OF ATOMS
51
ITEM: BOX BOUNDS pp pp pp
0.0000000000000000e+00 1.0000000000000000e+02
0.0000000000000000e+00 1.0000000000000000e+02
0.0000000000000000e+00 1.0000000000000000e+02
ITEM: ATOMS id type x y z q 
12 4 0.44843 0.24497 1.53037 -1.0598 
40 4 4.20498 1.16149 1.15384 -0.901961 
41 3 3.98613 0.96616 2.08939 0.393742 
44 4 3.37607 4.28873 0.91731 -0.863282 
45 3 2.86219 5.03164 1.23945 0.370802 
48 4 3.02123 0.27561 3.49776 -0.882457 
49 3 3.22462 0.56619 4.39351 0.354938 
17 4 94.5531 3.68028 0.05984 -0.636191 
18 4 94.2328 1.08545 0.81639 -0.6987 
20 4 95.9601 0.60192 2.98173 -0.652521 
28 3 95.2189 0.84544 2.39047 0.404678 
29 3 93.956 0.21773 0.45311 0.391275 
31 3 95.3715 4.12226 0.31086 0.353487 
32 3 99.1638 0.10482 2.53314 0.386549 
13 2 1.55807 99.1419 2.7304 1.97719 
37 3 4.61939 99.5776 0.27819 0.411093 
46 4 2.34388 97.7242 1.55798 -0.972181 
47 3 2.37596 96.7472 1.51943 0.397495 
50 4 0.36037 98.4717 4.10259 -0.830758 
2 4 97.3559 99.9372 0.73154 -0.754791 
7 1 97.0482 99.5993 2.29443 1.22046 
19 4 96.494 98.027 2.26095 -0.700837 
21 4 98.4873 99.6881 3.10045 -0.717403 
27 3 96.0706 97.3974 0.54609 0.41544 
33 3 95.9436 97.7437 2.99954 0.347312 
51 3 99.3973 98.6165 4.12972 0.440736 
6 2 0.53062 0.5443 99.5303 2.00479 
14 4 1.81005 2.02359 99.2966 -1.00962 
15 2 3.59273 2.61557 99.9429 2.02051 
42 4 4.84355 2.75967 98.4469 -0.839168 
43 3 5.30734 3.35703 97.8554 0.371108 
16 4 93.6974 1.76732 98.3428 -0.680592 
1 1 97.2364 0.50373 99.1976 1.29483 
3 4 96.2865 1.8573 99.2101 -0.680596 
5 4 98.733 0.87374 98.691 -0.80644 
8 1 94.7067 2.11319 99.6091 1.20355 
30 3 93.7592 2.34318 97.5726 0.344838 
10 4 1.37291 98.9151 98.9282 -1.00545 
11 2 2.99602 97.7031 99.127 2.04098 
34 4 3.46208 97.2146 97.2787 -0.813893 
35 3 4.17011 97.4808 96.684 0.367024 
36 4 4.49487 98.8106 99.6835 -0.854386 
38 4 2.78075 95.8428 99.9138 -0.814306 
39 3 2.92523 95.0249 99.4256 0.353408 
25 3 93.6111 99.6328 98.3972 0.385295 
4 4 96.5302 99.3435 98.2809 -0.683989 
9 1 95.3481 98.2028 98.5344 1.22023 
22 4 95.0261 97.4787 97.0997 -0.628502 
23 4 93.9592 98.9795 99.0264 -0.692861 
24 4 95.7801 97.113 99.6598 -0.6498 
26 3 95.7877 97.1319 96.6225 0.358714 
ITEM: TIMESTEP
633
ITEM: NUMBER OF ATOMS
51
ITEM: BOX BOUNDS pp pp pp
0.0000000000000000e+00 1.0000000000000000e+02
0.0000000000000000e+00 1.0000000000000000e+02
0.0000000000000000e+00 1.0000000000000000e+02
ITEM: ATOMS id type x y z q 
12 4 0.742414 0.201023 1.55429 -1.09305 
40 4 4.08237 1.32024 0.799779 -0.950431 
41 3 4.08293 0.928044 1.6675 0.411086 
44 4 3.04121 4.28067 1.05579 -0.891239 
45 3 2.74255 5.15992 1.04358 0.381611 
48 4 3.37313 99.9362 3.13091 -0.929357 
49 3 3.95168 0.0653916 3.85148 0.366034 
17 4 94.4485 3.51771 99.9746 -0.649994 
18 4 94.0072 0.87923 0.416644 -0.707775 
20 4 95.6659 0.43834 2.62022 -0.647708 
28 3 95.2034 0.668633 1.80014 0.400803 
29 3 93.8811 0.0370649 99.9262 0.381638 
31 3 95.1407 3.91955 0.494065 0.36243 
32 3 99.0914 0.22508 2.92697 0.342397 
13 2 1.71723 99.0197 2.70235 2.07442 
37 3 4.45044 99.5839 0.226596 0.4209 
46 4 2.16458 97.5198 1.46569 -1.03587 
47 3 2.12905 96.5657 1.467 0.376467 
50 4 0.405101 98.5836 4.03929 -0.884233 
2 4 97.6415 99.6526 0.899136 -0.780525 
7 1 97.06 99.5713 2.41585 1.17384 
19 4 96.6702 97.9639 2.63609 -0.66786 
21 4 98.2828 0.0795593 3.43027 -0.658244 
27 3 96.0415 97.8666 0.811832 0.395037 
33 3 95.8524 97.8462 3.12364 0.364156 
51 3 99.5083 98.7933 4.23045 0.441955 
6 2 0.516224 0.606643 99.705 2.2127 
14 4 1.63539 2.07222 99.4434 -1.12328 
15 2 3.27291 2.7981 99.8857 2.19504 
42 4 4.3915 3.26254 98.4188 -0.892458 
43 3 5.24254 3.0901 98.0886 0.383539 
16 4 94.3841 1.78308 97.956 -0.711354 
1 1 97.2928 0.393338 99.4922 1.29515 
3 4 96.385 1.72789 99.7655 -0.715068 
5 4 98.7639 0.833858 98.9453 -0.855904 
8 1 94.8133 1.98633 99.5215 1.21093 
30 3 93.8474 2.50946 97.6247 0.357591 
10 4 1.43563 99.0318 99.1499 -1.06818 
11 2 2.762 97.6441 99.2848 2.1917 
34 4 3.29229 97.4134 97.411 -0.830016 
35 3 3.97465 97.6582 96.833 0.386566 
36 4 4.28333 98.7325 99.8492 -0.864571 
38 4 2.49908 95.7266 99.5919 -0.865622 
39 3 2.53467 94.9259 99.1247 0.387315 
25 3 94.1496 99.9403 97.9855 0.393827 
4 4 96.6123 99.3117 98.4823 -0.734065 
9 1 95.4151 98.2613 98.6687 1.24307 
22 4 95.696 97.1209 97.5304 -0.61319 
23 4 94.0165 99.0512 98.3751 -0.686562 
24 4 95.3648 97.6251 0.16846 -0.65817 
26 3 96.4239 97.3674 96.9636 0.364536 
