ITEM: TIMESTEP
0
ITEM: NUMBER OF ATOMS
51
ITEM: BOX BOUNDS pp pp pp
0.0000000000000000e+00 1.0000000000000000e+02
0.0000000000000000e+00 1.0000000000000000e+02
0.0000000000000000e+00 1.0000000000000000e+02
ITEM: ATOMS id type x y z q 
12 4 1.02397 0.24869 1.09117 -1.02937 
41 3 4.57709 1.08119 0.91735 0.393832 
45 3 3.17906 5.12123 0.43009 0.371242 
48 4 3.95019 0.32966 2.47735 -0.882732 
49 3 4.32824 0.60927 3.31823 0.353909 
17 4 94.5531 3.68028 0.05984 -0.636363 
18 4 94.2328 1.08545 0.81639 -0.699905 
20 4 95.9601 0.60192 2.98173 -0.651822 
28 3 95.2189 0.84544 2.39047 0.402762 
29 3 93.956 0.21773 0.45311 0.390102 
31 3 95.3715 4.12226 0.31086 0.353254 
32 3 99.1638 0.10482 2.53314 0.336502 
13 2 2.3931 99.1612 2.0028 1.97209 
46 4 2.95736 97.7953 0.65457 -0.972052 
47 3 3.00977 96.821 0.58407 0.39715 
50 4 1.5305 98.4227 3.57665 -0.830892 
51 3 0.59066 98.5333 3.80837 0.383889 
2 4 97.3559 99.9372 0.73154 -0.744951 
7 1 97.0482 99.5993 2.29443 1.21841 
19 4 96.494 98.027 2.26095 -0.693254 
21 4 98.4873 99.6881 3.10045 -0.64342 
27 3 96.0706 97.3974 0.54609 0.415865 
33 3 95.9436 97.7437 2.99954 0.348384 
6 2 0.67573 0.59039 99.1269 2.00157 
14 4 1.83293 2.11762 98.6705 -1.00878 
15 2 3.69305 2.75827 98.9454 2.02143 
40 4 4.58885 1.30257 99.9623 -0.901721 
42 4 4.59729 2.97547 97.2254 -0.838866 
43 3 4.90862 3.60023 96.5661 0.371184 
44 4 3.63584 4.40318 99.9879 -0.86307 
16 4 93.6974 1.76732 98.3428 -0.680226 
1 1 97.2364 0.50373 99.1976 1.31129 
3 4 96.2865 1.8573 99.2101 -0.682022 
5 4 98.733 0.87374 98.691 -0.817067 
8 1 94.7067 2.11319 99.6091 1.20076 
30 3 93.7592 2.34318 97.5726 0.345525 
10 4 1.42115 99.0038 98.3187 -1.00625 
11 2 3.08527 97.8452 98.1413 2.04073 
34 4 3.16752 97.41 96.224 -0.813982 
35 3 3.72675 97.7124 95.5018 0.367549 
36 4 4.6338 98.9929 98.4015 -0.853583 
37 3 4.85738 99.7518 98.9773 0.411538 
38 4 3.09548 95.9633 98.9058 -0.814777 
39 3 3.15865 95.1608 98.3764 0.35296 
25 3 93.6111 99.6328 98.3972 0.385566 
4 4 96.5302 99.3435 98.2809 -0.688231 
9 1 95.3481 98.2028 98.5344 1.21894 
22 4 95.0261 97.4787 97.0997 -0.628116 
23 4 93.9592 98.9795 99.0264 -0.694132 
24 4 95.7801 97.113 99.6598 -0.650159 
26 3 95.7877 97.1319 96.6225 0.359284 
ITEM: TIMESTEP
80
ITEM: NUMBER OF ATOMS
51
ITEM: BOX BOUNDS pp pp pp
0.0000000000000000e+00 1.0000000000000000e+02
0.0000000000000000e+00 1.0000000000000000e+02
0.0000000000000000e+00 1.0000000000000000e+02
ITEM: ATOMS id type x y z q 
12 4 0.992153 0.198912 0.973211 -1.11759 
41 3 4.5162 1.06489 0.762181 0.408368 
45 3 3.07692 4.96492 0.338036 0.375674 
48 4 3.79222 0.260561 2.36709 -0.938345 
49 3 4.27657 0.511401 3.12435 0.37209 
17 4 94.5403 3.63199 -0.048649 -0.647145 
18 4 94.2513 1.07315 0.784821 -0.712425 
20 4 96.0081 0.566965 2.8894 -0.644357 
28 3 95.3948 0.889413 2.21444 0.404029 
29 3 94.0795 0.169326 0.445058 0.377892 
31 3 95.3379 4.05132 0.265818 0.356318 
32 3 99.31 -0.0958037 2.49149 0.342205 
13 2 2.28138 99.1721 1.88844 2.12352 
46 4 2.83116 97.8188 0.592908 -1.06683 
47 3 3.0161 96.8797 0.584592 0.378844 
50 4 1.37712 98.486 3.4263 -0.887288 
51 3 0.537156 98.5384 3.82481 0.423555 
2 4 97.4926 99.8454 0.717098 -0.76334 
7 1 97.1496 99.5234 2.27373 1.18 
19 4 96.5085 97.9712 2.33637 -0.681411 
21 4 98.608 99.6348 3.08652 -0.645466 
27 3 96.1365 97.5563 0.503529 0.409566 
33 3 95.948 97.8335 3.10159 0.355224 
6 2 0.616161 0.658072 99.1702 2.20305 
14 4 1.75406 2.1062 98.8619 -1.13839 
15 2 3.48967 2.73548 98.9074 2.19388 
40 4 4.40405 1.35995 99.8677 -0.954333 
42 4 4.29207 2.98818 97.2011 -0.887465 
43 3 4.88485 3.55895 96.7703 0.386199 
44 4 3.61688 4.35805 99.8895 -0.895659 
16 4 93.9482 1.6669 98.2314 -0.71248 
1 1 97.2517 0.479862 99.2406 1.32531 
3 4 96.3648 1.85094 99.3621 -0.707385 
5 4 98.7559 0.832837 98.7079 -0.873337 
8 1 94.7811 2.05495 99.585 1.21552 
30 3 93.7471 2.42441 97.6793 0.359601 
10 4 1.55723 99.1562 98.4628 -1.07413 
11 2 2.98171 97.8637 98.3555 2.19087 
34 4 3.09387 97.5317 96.423 -0.829221 
35 3 3.6483 97.7195 95.7032 0.390422 
36 4 4.57314 98.9783 98.5453 -0.859888 
37 3 4.84666 99.7505 99.014 0.427364 
38 4 3.05098 95.9561 98.8139 -0.868291 
39 3 3.15323 95.1333 98.3972 0.384633 
25 3 93.8243 99.8318 98.5287 0.401835 
4 4 96.5489 99.3793 98.2643 -0.714052 
9 1 95.3987 98.2925 98.5252 1.24626 
22 4 95.1022 97.5314 97.1053 -0.619233 
23 4 94.0147 99.0042 99.0144 -0.706828 
24 4 95.8955 97.2053 99.6367 -0.651062 
26 3 95.8777 97.1475 96.7074 0.363722 
