ITEM: TIMESTEP
0
ITEM: NUMBER OF ATOMS
51
ITEM: BOX BOUNDS pp pp pp
0.0000000000000000e+00 1.0000000000000000e+02
0.0000000000000000e+00 1.0000000000000000e+02
0.0000000000000000e+00 1.0000000000000000e+02
ITEM: ATOMS id type x y z q 
17 4 94.5531 3.68028 0.05984 -0.635448 
18 4 94.2328 1.08545 0.81639 -0.70187 
20 4 95.9601 0.60192 2.98173 -0.658174 
28 3 95.2189 0.84544 2.39047 0.399966 
29 3 93.956 0.21773 0.45311 0.388822 
31 3 95.3715 4.12226 0.31086 0.351259 
32 3 99.1638 0.10482 2.53314 0.341317 
50 4 3.93396 98.4938 0.9247 -0.832283 
51 3 3.28724 98.5073 1.65325 0.347386 
2 4 97.3559 99.9372 0.73154 -0.719773 
7 1 97.0482 99.5993 2.29443 1.21566 
19 4 96.494 98.027 2.26095 -0.689586 
21 4 98.4873 99.6881 3.10045 -0.609164 
27 3 96.0706 97.3974 0.54609 0.416546 
33 3 95.9436 97.7437 2.99954 0.343558 
43 3 2.45754 4.24548 93.7064 0.36977 
35 3 1.19505 98.3222 92.9874 0.36672 
6 2 0.59181 0.75391 97.9327 2.00384 
12 4 2.01059 0.36556 99.3229 -1.00892 
14 4 1.20271 2.39921 97.0384 -1.00942 
15 2 2.85321 3.19756 96.2739 2.02444 
37 3 3.98778 0.31305 95.3861 0.411757 
40 4 4.2436 1.79057 96.481 -0.901801 
41 3 4.78755 1.53003 97.254 0.394545 
42 4 2.60888 3.56803 94.3696 -0.840038 
44 4 3.31038 4.78591 97.3055 -0.863698 
45 3 3.14777 5.43979 97.9879 0.371345 
48 4 5.19739 0.66025 98.8246 -0.881402 
49 3 5.9703 0.93891 99.3278 0.353342 
16 4 93.6974 1.76732 98.3428 -0.679515 
1 1 97.2364 0.50373 99.1976 1.32839 
3 4 96.2865 1.8573 99.2101 -0.687693 
5 4 98.733 0.87374 98.691 -0.83429 
8 1 94.7067 2.11319 99.6091 1.19769 
30 3 93.7592 2.34318 97.5726 0.345585 
10 4 0.83004 99.2777 96.7119 -1.00986 
11 2 2.15843 98.2865 95.5304 2.04144 
13 2 3.71064 99.3731 99.209 1.96887 
34 4 1.16134 97.9399 93.8698 -0.817062 
36 4 3.51766 99.561 94.9728 -0.852779 
38 4 2.70047 96.3838 95.991 -0.816399 
39 3 2.49467 95.613 95.4509 0.351298 
46 4 3.48191 98.1218 97.665 -0.97107 
47 3 3.53671 97.1603 97.4935 0.395739 
25 3 93.6111 99.6328 98.3972 0.385815 
4 4 96.5302 99.3435 98.2809 -0.700812 
9 1 95.3481 98.2028 98.5344 1.22002 
22 4 95.0261 97.4787 97.0997 -0.626153 
23 4 93.9592 98.9795 99.0264 -0.695836 
24 4 95.7801 97.113 99.6598 -0.651559 
26 3 95.7877 97.1319 96.6225 0.359478 
ITEM: TIMESTEP
460
ITEM: NUMBER OF ATOMS
51
ITEM: BOX BOUNDS pp pp pp
0.0000000000000000e+00 1.0000000000000000e+02
0.0000000000000000e+00 1.0000000000000000e+02
0.0000000000000000e+00 1.0000000000000000e+02
ITEM: ATOMS id type x y z q 
17 4 94.6355 3.59306 100.015 -0.654833 
18 4 94.3308 0.997906 0.730963 -0.710619 
20 4 96.5118 0.939014 2.46595 -0.674112 
28 3 95.7344 1.1231 1.91349 0.40649 
29 3 94.2177 0.0943709 0.359056 0.381549 
31 3 95.4283 4.02193 0.328926 0.355885 
32 3 98.6263 0.0460862 3.63135 0.354988 
50 4 3.79954 98.5274 0.953745 -0.896061 
51 3 3.40325 98.3419 1.77317 0.381612 
2 4 97.8014 99.6174 0.502573 -0.731936 
7 1 97.2577 99.5618 2.00737 1.22767 
19 4 96.2075 98.319 2.12554 -0.710624 
21 4 98.4775 99.2939 3.06327 -0.656581 
27 3 96.1639 97.6699 0.393284 0.407692 
33 3 96.5131 97.6481 2.74784 0.355584 
43 3 2.71919 4.09817 93.7379 0.379668 
35 3 1.39292 98.5356 93.2499 0.384579 
6 2 0.547175 0.909661 97.858 2.22399 
12 4 1.81412 0.349069 99.1576 -1.0909 
14 4 1.13395 2.529 97.147 -1.13634 
15 2 2.53647 3.40269 96.3215 2.19367 
37 3 3.97176 0.337798 95.6321 0.421618 
40 4 3.87248 2.03305 96.4094 -0.947027 
41 3 4.39734 1.58737 97.067 0.409038 
42 4 2.24339 3.85609 94.4979 -0.893502 
44 4 3.04924 4.92363 97.3418 -0.894937 
45 3 2.71733 5.4815 98.006 0.376191 
48 4 4.73753 0.471186 98.5488 -0.932229 
49 3 5.65845 0.621956 98.6292 0.363929 
16 4 94.1216 1.71808 98.1967 -0.70927 
1 1 97.3461 0.438409 99.1771 1.34653 
3 4 96.491 1.79362 99.5072 -0.715993 
5 4 98.7353 0.874179 98.4595 -0.880089 
8 1 94.9008 2.03186 99.5989 1.20914 
30 3 93.5929 2.46159 97.8953 0.35615 
10 4 1.05931 99.5098 96.6569 -1.06307 
11 2 2.24571 98.2206 95.835 2.18582 
13 2 3.37312 99.2965 99.2558 2.12227 
34 4 1.4242 98.0772 94.055 -0.828244 
36 4 3.6989 99.4598 95.4103 -0.863052 
38 4 2.45496 96.2733 96.0171 -0.862865 
39 3 2.3365 95.5024 95.5145 0.381958 
46 4 3.0665 97.9188 97.8949 -1.06113 
47 3 3.15144 96.9704 97.8157 0.380981 
25 3 93.9309 99.8833 98.4393 0.400123 
4 4 96.5465 99.4522 98.1542 -0.706186 
9 1 95.4511 98.3054 98.4008 1.24783 
22 4 95.2172 97.4465 97.0263 -0.619416 
23 4 94.0573 99.0125 98.8672 -0.705977 
24 4 95.9646 97.2551 99.5398 -0.672129 
26 3 95.6288 96.5868 97.0594 0.362141 
