ITEM: TIMESTEP
0
ITEM: NUMBER OF ATOMS
51
ITEM: BOX BOUNDS pp pp pp
0.0000000000000000e+00 1.0000000000000000e+02
0.0000000000000000e+00 1.0000000000000000e+02
0.0000000000000000e+00 1.0000000000000000e+02
ITEM: ATOMS id type x y z q 
12 4 0.70822 0.24301 1.35573 -1.04237 
40 4 4.40209 1.21741 0.64914 -0.901877 
41 3 4.272 1.01006 1.59855 0.393705 
44 4 3.51272 4.33441 0.5226 -0.863149 
45 3 3.02027 5.0667 0.89811 0.37105 
48 4 3.4488 0.29228 3.08129 -0.882492 
49 3 3.72895 0.57727 3.95792 0.354451 
17 4 94.5531 3.68028 0.05984 -0.636301 
18 4 94.2328 1.08545 0.81639 -0.699267 
20 4 95.9601 0.60192 2.98173 -0.651472 
28 3 95.2189 0.84544 2.39047 0.403741 
29 3 93.956 0.21773 0.45311 0.390713 
31 3 95.3715 4.12226 0.31086 0.353466 
32 3 99.1638 0.10482 2.53314 0.35689 
13 2 1.93738 99.1448 2.43797 1.97432 
46 4 2.63234 97.7498 1.18378 -0.972048 
47 3 2.67403 96.7738 1.13196 0.397421 
50 4 0.8788 98.4443 3.90608 -0.832601 
2 4 97.3559 99.9372 0.73154 -0.750788 
7 1 97.0482 99.5993 2.29443 1.2199 
19 4 96.494 98.027 2.26095 -0.696655 
21 4 98.4873 99.6881 3.10045 -0.677842 
27 3 96.0706 97.3974 0.54609 0.415596 
33 3 95.9436 97.7437 2.99954 0.348507 
51 3 99.9203 98.5749 4.0222 0.412143 
6 2 0.60388 0.56245 99.3598 2.00253 
14 4 1.83653 2.06228 99.0267 -1.00913 
15 2 3.66245 2.67388 99.5145 2.02087 
42 4 4.76979 2.85027 97.9127 -0.838948 
43 3 5.16965 3.45986 97.288 0.371266 
16 4 93.6974 1.76732 98.3428 -0.680451 
1 1 97.2364 0.50373 99.1976 1.30271 
3 4 96.2865 1.8573 99.2101 -0.681178 
5 4 98.733 0.87374 98.691 -0.811222 
8 1 94.7067 2.11319 99.6091 1.20226 
30 3 93.7592 2.34318 97.5726 0.345223 
10 4 1.40988 98.9514 98.6661 -1.00574 
11 2 3.06065 97.7612 98.7035 2.04076 
34 4 3.36306 97.2971 96.8153 -0.81384 
35 3 4.01033 97.5791 96.1616 0.367369 
36 4 4.58878 98.885 99.1333 -0.853998 
37 3 4.75651 99.648 99.7224 0.411306 
38 4 2.94318 95.8906 99.4866 -0.814498 
39 3 3.0537 95.0796 98.9785 0.35324 
25 3 93.6111 99.6328 98.3972 0.385435 
4 4 96.5302 99.3435 98.2809 -0.68585 
9 1 95.3481 98.2028 98.5344 1.21959 
22 4 95.0261 97.4787 97.0997 -0.628319 
23 4 93.9592 98.9795 99.0264 -0.693486 
24 4 95.7801 97.113 99.6598 -0.649949 
26 3 95.7877 97.1319 96.6225 0.359016 
ITEM: TIMESTEP
2478
ITEM: NUMBER OF ATOMS
51
ITEM: BOX BOUNDS pp pp pp
0.0000000000000000e+00 1.0000000000000000e+02
0.0000000000000000e+00 1.0000000000000000e+02
0.0000000000000000e+00 1.0000000000000000e+02
ITEM: ATOMS id type x y z q 
12 4 0.831799 0.10707 1.43784 -1.1108 
40 4 4.25279 1.44583 0.30634 -0.946536 
41 3 4.31964 1.05023 1.17032 0.410939 
44 4 3.2421 4.427 0.527681 -0.891447 
45 3 2.68625 5.14736 0.713757 0.38019 
48 4 3.64087 0.0457009 2.6151 -0.935915 
49 3 4.2986 0.213997 3.26081 0.366528 
18 4 94.2046 0.9447 0.594359 -0.709904 
20 4 96.1234 1.06777 2.60384 -0.627905 
28 3 95.4095 1.19515 1.95857 0.403908 
29 3 94.1702 0.0310909 0.228469 0.380737 
31 3 95.2505 3.95351 0.395118 0.361315 
13 2 2.02686 99.0066 2.39725 2.10994 
46 4 2.41791 97.4863 1.21665 -1.0609 
47 3 2.43557 96.5374 1.29145 0.377142 
50 4 1.15177 98.4552 4.00753 -0.892357 
51 3 0.312813 98.507 4.40594 0.407573 
32 3 99.0808 99.6838 2.91128 0.336102 
2 4 97.5985 99.6876 0.771878 -0.770952 
7 1 96.9725 99.6708 2.27976 1.16246 
19 4 95.9293 98.3561 2.41146 -0.682786 
21 4 98.2532 99.4578 3.33295 -0.655526 
27 3 95.9296 97.7259 0.611979 0.405869 
33 3 96.084 97.8599 3.21966 0.362045 
6 2 0.565756 0.601643 99.6256 2.20953 
14 4 1.61528 2.11377 99.352 -1.13274 
15 2 3.29649 2.86438 99.444 2.19816 
42 4 4.1656 3.19196 97.7845 -0.891572 
43 3 5.01244 3.15592 97.4045 0.383931 
30 3 93.5598 2.38857 97.7713 0.356852 
17 4 94.5156 3.54038 99.9485 -0.651932 
16 4 94.1573 1.68919 98.0533 -0.709429 
1 1 97.3076 0.399704 99.3321 1.30048 
3 4 96.4329 1.77387 99.5012 -0.705726 
5 4 98.8116 0.7831 98.8277 -0.847439 
8 1 94.8363 1.9955 99.5099 1.20963 
10 4 1.54089 99.0751 99.0276 -1.07083 
11 2 2.88951 97.6944 99.0257 2.18596 
34 4 3.25138 97.5553 97.0951 -0.823652 
35 3 3.85708 97.8633 96.4647 0.385937 
36 4 4.42753 98.8143 99.4873 -0.86355 
37 3 4.60349 99.6911 99.7984 0.421467 
38 4 2.74122 95.7467 99.2273 -0.856144 
39 3 2.77147 94.981 98.7058 0.387492 
25 3 94.0071 99.8485 98.2546 0.396291 
4 4 96.6301 99.3418 98.2947 -0.719685 
9 1 95.4894 98.2285 98.4872 1.24499 
22 4 95.4562 97.3581 97.0997 -0.614944 
23 4 94.0618 98.9845 98.7167 -0.698326 
24 4 95.825 97.2717 99.767 -0.640232 
26 3 96.23 97.5048 96.5609 0.365766 
