ITEM: TIMESTEP
0
ITEM: NUMBER OF ATOMS
51
ITEM: BOX BOUNDS pp pp pp
0.0000000000000000e+00 1.0000000000000000e+02
0.0000000000000000e+00 1.0000000000000000e+02
0.0000000000000000e+00 1.0000000000000000e+02
ITEM: ATOMS id type x y z q 
12 4 0.75329 0.24323 1.32177 -1.04007 
40 4 4.4326 1.22831 0.55644 -0.901859 
41 3 4.31864 1.01892 1.50747 0.393712 
44 4 3.53343 4.34326 0.45028 -0.863128 
45 3 3.04537 5.07362 0.83517 0.371085 
48 4 3.52171 0.29637 3.0022 -0.882526 
49 3 3.8155 0.58049 3.87464 0.354369 
17 4 94.5531 3.68028 0.05984 -0.636319 
18 4 94.2328 1.08545 0.81639 -0.699364 
20 4 95.9601 0.60192 2.98173 -0.651432 
28 3 95.2189 0.84544 2.39047 0.403592 
29 3 93.956 0.21773 0.45311 0.390618 
31 3 95.3715 4.12226 0.31086 0.353451 
32 3 99.1638 0.10482 2.53314 0.352981 
13 2 2.00282 99.1462 2.38166 1.97396 
46 4 2.6806 97.7553 1.11366 -0.97204 
47 3 2.72389 96.7795 1.05936 0.397395 
50 4 0.97026 98.4404 3.86565 -0.832439 
51 3 0.01348 98.5683 3.99773 0.40748 
2 4 97.3559 99.9372 0.73154 -0.749996 
7 1 97.0482 99.5993 2.29443 1.21969 
19 4 96.494 98.027 2.26095 -0.696065 
21 4 98.4873 99.6881 3.10045 -0.671933 
27 3 96.0706 97.3974 0.54609 0.415633 
33 3 95.9436 97.7437 2.99954 0.34858 
6 2 0.61539 0.56601 99.3285 2.0023 
14 4 1.83862 2.06957 98.9779 -1.00907 
15 2 3.67076 2.68494 99.4368 2.02094 
42 4 4.7512 2.86704 97.8174 -0.838921 
43 3 5.13921 3.47878 97.1873 0.371267 
16 4 93.6974 1.76732 98.3428 -0.680422 
1 1 97.2364 0.50373 99.1976 1.30399 
3 4 96.2865 1.8573 99.2101 -0.681287 
5 4 98.733 0.87374 98.691 -0.812054 
8 1 94.7067 2.11319 99.6091 1.20205 
30 3 93.7592 2.34318 97.5726 0.345282 
10 4 1.41394 98.9583 98.6186 -1.00581 
11 2 3.06809 97.7723 98.6267 2.04074 
34 4 3.34063 97.3123 96.733 -0.813848 
35 3 3.97636 97.5971 96.0692 0.367411 
36 4 4.60024 98.8992 99.0334 -0.853934 
37 3 4.7757 99.6615 99.6212 0.411341 
38 4 2.96821 95.9 99.4082 -0.814531 
39 3 3.07241 95.0901 98.8968 0.353206 
25 3 93.6111 99.6328 98.3972 0.385456 
4 4 96.5302 99.3435 98.2809 -0.686179 
9 1 95.3481 98.2028 98.5344 1.21949 
22 4 95.0261 97.4787 97.0997 -0.628291 
23 4 93.9592 98.9795 99.0264 -0.693589 
24 4 95.7801 97.113 99.6598 -0.649975 
26 3 95.7877 97.1319 96.6225 0.359061 
ITEM: TIMESTEP
132
ITEM: NUMBER OF ATOMS
51
ITEM: BOX BOUNDS pp pp pp
0.0000000000000000e+00 1.0000000000000000e+02
0.0000000000000000e+00 1.0000000000000000e+02
0.0000000000000000e+00 1.0000000000000000e+02
ITEM: ATOMS id type x y z q 
12 4 0.839208 0.152453 1.23999 -1.09865 
40 4 4.20289 1.31142 0.361803 -0.953573 
41 3 4.23182 1.00036 1.25901 0.404876 
44 4 3.46239 4.33799 0.366195 -0.895953 
45 3 2.89088 4.96523 0.742094 0.376953 
48 4 3.49974 0.203552 2.8622 -0.931503 
49 3 3.91617 0.521916 3.63254 0.368467 
17 4 94.525 3.6555 -0.0986779 -0.651373 
18 4 94.1744 1.09386 0.737178 -0.707622 
20 4 95.9694 0.588206 2.79601 -0.644982 
28 3 95.412 0.92109 2.07741 0.401645 
29 3 94.0542 0.182351 0.392461 0.374977 
31 3 95.2912 4.10465 0.249056 0.357621 
32 3 99.2464 -0.129942 2.59066 0.342927 
13 2 1.99427 99.101 2.34492 2.07874 
46 4 2.57219 97.6979 1.05504 -1.03853 
47 3 2.69731 96.7498 1.04909 0.376981 
50 4 0.855173 98.4654 3.75758 -0.883701 
51 3 -0.0373544 98.5569 4.02379 0.438674 
2 4 97.5105 99.7087 0.726466 -0.772435 
7 1 97.1049 99.4974 2.28414 1.18707 
19 4 96.4602 97.9633 2.39833 -0.681716 
21 4 98.5057 99.6551 3.16483 -0.666179 
27 3 96.2012 97.6314 0.512545 0.4116 
33 3 95.9049 97.8464 3.16993 0.358167 
6 2 0.584179 0.614752 99.4064 2.20682 
14 4 1.67888 2.10575 99.17 -1.13249 
15 2 3.40645 2.73057 99.3525 2.19198 
42 4 4.35407 2.96255 97.7187 -0.889241 
43 3 5.11719 3.37731 97.3902 0.384901 
16 4 94.0826 1.68388 98.1763 -0.712366 
1 1 97.2603 0.459524 99.3049 1.31599 
3 4 96.4045 1.83608 99.5388 -0.711099 
5 4 98.771 0.808519 98.7979 -0.867826 
8 1 94.8099 2.07324 99.5873 1.21317 
30 3 93.6849 2.43887 97.7376 0.360442 
10 4 1.56224 99.1029 98.781 -1.0735 
11 2 2.94532 97.7687 98.8272 2.19606 
34 4 3.24123 97.451 96.9169 -0.832033 
35 3 3.85948 97.6459 96.2538 0.388759 
36 4 4.51726 98.8517 99.2214 -0.861387 
37 3 4.72901 99.6597 99.6632 0.427298 
38 4 2.90315 95.8611 99.2705 -0.870413 
39 3 3.03575 95.0385 98.8622 0.385175 
25 3 93.8816 99.8615 98.4991 0.39802 
4 4 96.5322 99.4251 98.2712 -0.707592 
9 1 95.4163 98.2932 98.5223 1.24275 
22 4 95.1762 97.4877 97.1155 -0.617824 
23 4 94.017 99.0089 98.968 -0.700669 
24 4 95.9293 97.2492 99.6689 -0.650339 
26 3 95.9751 97.1441 96.7272 0.362945 
