ITEM: TIMESTEP
0
ITEM: NUMBER OF ATOMS
51
ITEM: BOX BOUNDS pp pp pp
0.0000000000000000e+00 1.0000000000000000e+02
0.0000000000000000e+00 1.0000000000000000e+02
0.0000000000000000e+00 1.0000000000000000e+02
ITEM: ATOMS id type x y z q 
12 4 0.70822 0.24301 1.35573 -1.04237 
40 4 4.40209 1.21741 0.64914 -0.901877 
41 3 4.272 1.01006 1.59855 0.393705 
44 4 3.51272 4.33441 0.5226 -0.863149 
45 3 3.02027 5.0667 0.89811 0.37105 
48 4 3.4488 0.29228 3.08129 -0.882492 
49 3 3.72895 0.57727 3.95792 0.354451 
17 4 94.5531 3.68028 0.05984 -0.636301 
18 4 94.2328 1.08545 0.81639 -0.699267 
20 4 95.9601 0.60192 2.98173 -0.651472 
28 3 95.2189 0.84544 2.39047 0.403741 
29 3 93.956 0.21773 0.45311 0.390713 
31 3 95.3715 4.12226 0.31086 0.353466 
32 3 99.1638 0.10482 2.53314 0.35689 
13 2 1.93738 99.1448 2.43797 1.97432 
46 4 2.63234 97.7498 1.18378 -0.972048 
47 3 2.67403 96.7738 1.13196 0.397421 
50 4 0.8788 98.4443 3.90608 -0.832601 
2 4 97.3559 99.9372 0.73154 -0.750788 
7 1 97.0482 99.5993 2.29443 1.2199 
19 4 96.494 98.027 2.26095 -0.696655 
21 4 98.4873 99.6881 3.10045 -0.677842 
27 3 96.0706 97.3974 0.54609 0.415596 
33 3 95.9436 97.7437 2.99954 0.348507 
51 3 99.9203 98.5749 4.0222 0.412143 
6 2 0.60388 0.56245 99.3598 2.00253 
14 4 1.83653 2.06228 99.0267 -1.00913 
15 2 3.66245 2.67388 99.5145 2.02087 
42 4 4.76979 2.85027 97.9127 -0.838948 
43 3 5.16965 3.45986 97.288 0.371266 
16 4 93.6974 1.76732 98.3428 -0.680451 
1 1 97.2364 0.50373 99.1976 1.30271 
3 4 96.2865 1.8573 99.2101 -0.681178 
5 4 98.733 0.87374 98.691 -0.811222 
8 1 94.7067 2.11319 99.6091 1.20226 
30 3 93.7592 2.34318 97.5726 0.345223 
10 4 1.40988 98.9514 98.6661 -1.00574 
11 2 3.06065 97.7612 98.7035 2.04076 
34 4 3.36306 97.2971 96.8153 -0.81384 
35 3 4.01033 97.5791 96.1616 0.367369 
36 4 4.58878 98.885 99.1333 -0.853998 
37 3 4.75651 99.648 99.7224 0.411306 
38 4 2.94318 95.8906 99.4866 -0.814498 
39 3 3.0537 95.0796 98.9785 0.35324 
25 3 93.6111 99.6328 98.3972 0.385435 
4 4 96.5302 99.3435 98.2809 -0.68585 
9 1 95.3481 98.2028 98.5344 1.21959 
22 4 95.0261 97.4787 97.0997 -0.628319 
23 4 93.9592 98.9795 99.0264 -0.693486 
24 4 95.7801 97.113 99.6598 -0.649949 
26 3 95.7877 97.1319 96.6225 0.359016 
ITEM: TIMESTEP
332
ITEM: NUMBER OF ATOMS
51
ITEM: BOX BOUNDS pp pp pp
0.0000000000000000e+00 1.0000000000000000e+02
0.0000000000000000e+00 1.0000000000000000e+02
0.0000000000000000e+00 1.0000000000000000e+02
ITEM: ATOMS id type x y z q 
12 4 0.817433 0.102141 1.36332 -1.09439 
40 4 4.22251 1.4094 0.349889 -0.946887 
41 3 4.25642 1.0228 1.22089 0.411169 
44 4 3.27413 4.40387 0.522442 -0.891644 
45 3 2.70519 5.10739 0.732907 0.3785 
48 4 3.57639 0.0762093 2.70266 -0.929875 
49 3 4.15738 0.32691 3.39123 0.362018 
17 4 94.5526 3.59316 -0.063 -0.651289 
18 4 94.1424 0.997537 0.614222 -0.711013 
20 4 96.0061 0.761881 2.68123 -0.642033 
28 3 95.408 0.969434 1.94671 0.402036 
29 3 94.0085 0.111664 0.210598 0.376818 
31 3 95.3148 4.03051 0.309565 0.360555 
32 3 99.2207 -0.186205 2.74416 0.343096 
13 2 1.97164 99.0099 2.4294 2.06945 
46 4 2.42664 97.5544 1.1405 -1.03593 
47 3 2.4521 96.5992 1.12942 0.37802 
50 4 0.887462 98.4693 3.92438 -0.888052 
2 4 97.5728 99.6107 0.77227 -0.772172 
7 1 97.0773 99.5498 2.31984 1.18066 
19 4 96.2958 98.0904 2.50857 -0.67907 
21 4 98.438 99.6395 3.27349 -0.66165 
27 3 96.1119 97.7278 0.610431 0.412283 
33 3 95.8601 97.9994 3.35586 0.360458 
51 3 100.007 98.569 4.21839 0.429493 
6 2 0.577761 0.60163 99.5387 2.21153 
14 4 1.63136 2.11698 99.2928 -1.13346 
15 2 3.32319 2.83799 99.4417 2.19401 
42 4 4.24588 3.15483 97.8077 -0.891128 
43 3 5.11353 3.20204 97.4785 0.383209 
16 4 94.2204 1.71847 98.0785 -0.711938 
1 1 97.2935 0.392153 99.3694 1.30762 
3 4 96.4372 1.76398 99.6288 -0.712412 
5 4 98.7913 0.778272 98.8559 -0.862933 
8 1 94.8494 2.02759 99.5556 1.21147 
30 3 93.6487 2.42571 97.7698 0.356484 
10 4 1.55163 99.0923 98.8997 -1.07061 
11 2 2.90442 97.723 98.9383 2.1922 
34 4 3.26708 97.4929 97.0252 -0.831215 
35 3 3.86384 97.7826 96.3773 0.386455 
36 4 4.44404 98.829 99.4071 -0.863252 
37 3 4.62269 99.6852 99.769 0.423565 
38 4 2.76764 95.7965 99.2802 -0.866213 
39 3 2.86006 94.991 98.8283 0.385356 
25 3 93.9855 99.8832 98.2805 0.393874 
4 4 96.5837 99.3683 98.3163 -0.718649 
9 1 95.4457 98.2511 98.5225 1.24243 
22 4 95.4271 97.3545 97.1484 -0.612882 
23 4 94.0142 99.0128 98.7315 -0.696976 
24 4 95.7906 97.3021 99.8062 -0.640915 
26 3 96.2583 97.3909 96.6799 0.363826 
