ITEM: TIMESTEP
0
ITEM: NUMBER OF ATOMS
51
ITEM: BOX BOUNDS pp pp pp
0.0000000000000000e+00 1.0000000000000000e+02
0.0000000000000000e+00 1.0000000000000000e+02
0.0000000000000000e+00 1.0000000000000000e+02
ITEM: ATOMS id type x y z q 
12 4 0.79234 0.24357 1.2914 -1.0382 
40 4 4.45807 1.23807 0.47478 -0.901838 
41 3 4.35827 1.02692 1.42702 0.393716 
44 4 3.55059 4.35117 0.38661 -0.863116 
45 3 3.06651 5.07983 0.77967 0.371113 
48 4 3.58454 0.30022 2.93189 -0.882555 
49 3 3.89024 0.58362 3.80047 0.354295 
17 4 94.5531 3.68028 0.05984 -0.636327 
18 4 94.2328 1.08545 0.81639 -0.699441 
20 4 95.9601 0.60192 2.98173 -0.651421 
28 3 95.2189 0.84544 2.39047 0.403466 
29 3 93.956 0.21773 0.45311 0.39054 
31 3 95.3715 4.12226 0.31086 0.353433 
32 3 99.1638 0.10482 2.53314 0.349884 
13 2 2.05942 99.1477 2.33142 1.97366 
46 4 2.72195 97.7603 1.05154 -0.972046 
47 3 2.76661 96.7846 0.99505 0.397367 
50 4 1.04989 98.4372 3.82897 -0.832249 
51 3 0.09483 98.5627 3.97501 0.403593 
2 4 97.3559 99.9372 0.73154 -0.749302 
7 1 97.0482 99.5993 2.29443 1.2195 
19 4 96.494 98.027 2.26095 -0.695584 
21 4 98.4873 99.6881 3.10045 -0.667087 
27 3 96.0706 97.3974 0.54609 0.415664 
33 3 95.9436 97.7437 2.99954 0.348613 
6 2 0.62505 0.5692 99.3008 2.00212 
14 4 1.83978 2.07604 98.9351 -1.00902 
15 2 3.67697 2.69477 99.3686 2.021 
42 4 4.73358 2.88185 97.7341 -0.838903 
43 3 5.11113 3.49545 97.0994 0.371273 
16 4 93.6974 1.76732 98.3428 -0.680396 
1 1 97.2364 0.50373 99.1976 1.3051 
3 4 96.2865 1.8573 99.2101 -0.681385 
5 4 98.733 0.87374 98.691 -0.812775 
8 1 94.7067 2.11319 99.6091 1.20185 
30 3 93.7592 2.34318 97.5726 0.345323 
10 4 1.41684 98.9644 98.5769 -1.00586 
11 2 3.07356 97.782 98.5593 2.04073 
34 4 3.31982 97.3257 96.6611 -0.813853 
35 3 3.9453 97.613 95.9888 0.367444 
36 4 4.60891 98.9117 98.9458 -0.853881 
37 3 4.79113 99.6736 99.5321 0.411371 
38 4 2.98907 95.9083 99.3391 -0.814566 
39 3 3.08769 95.0995 98.825 0.353178 
25 3 93.6111 99.6328 98.3972 0.385476 
4 4 96.5302 99.3435 98.2809 -0.686468 
9 1 95.3481 98.2028 98.5344 1.2194 
22 4 95.0261 97.4787 97.0997 -0.628263 
23 4 93.9592 98.9795 99.0264 -0.69367 
24 4 95.7801 97.113 99.6598 -0.649999 
26 3 95.7877 97.1319 96.6225 0.359099 
ITEM: TIMESTEP
26
ITEM: NUMBER OF ATOMS
51
ITEM: BOX BOUNDS pp pp pp
0.0000000000000000e+00 1.0000000000000000e+02
0.0000000000000000e+00 1.0000000000000000e+02
0.0000000000000000e+00 1.0000000000000000e+02
ITEM: ATOMS id type x y z q 
12 4 0.867608 0.204693 1.16479 -1.12223 
40 4 4.33172 1.28373 0.426453 -0.950984 
41 3 4.36775 1.02337 1.33589 0.410391 
44 4 3.59253 4.28065 0.300901 -0.89611 
45 3 3.0223 4.91052 0.675588 0.371781 
48 4 3.50103 0.238313 2.87924 -0.937002 
49 3 3.84983 0.52839 3.69419 0.375049 
17 4 94.5523 3.62254 0.00610935 -0.644406 
18 4 94.2492 1.06442 0.783241 -0.714052 
20 4 95.9094 0.550371 2.949 -0.643257 
28 3 95.2832 0.881553 2.29403 0.407496 
29 3 94.0151 0.181844 0.420536 0.384045 
31 3 95.3642 4.04161 0.285438 0.353603 
32 3 99.2031 0.0179984 2.5325 0.343817 
13 2 2.05478 99.1702 2.20378 2.12946 
46 4 2.65903 97.8111 0.94519 -1.0718 
47 3 2.80201 96.8629 0.937956 0.379249 
50 4 1.02454 98.4907 3.66089 -0.885511 
51 3 0.155017 98.5628 3.9899 0.432898 
2 4 97.4402 99.9519 0.746489 -0.766609 
7 1 97.0705 99.5602 2.28266 1.18014 
19 4 96.4861 97.9827 2.30091 -0.687002 
21 4 98.5106 99.7035 3.11896 -0.655527 
27 3 96.0732 97.4863 0.50323 0.408391 
33 3 95.936 97.7992 3.06477 0.354493 
6 2 0.575378 0.619268 99.3341 2.18341 
14 4 1.82237 2.00285 99.0906 -1.13392 
15 2 3.54286 2.63985 99.34 2.18826 
42 4 4.57944 2.84094 97.7551 -0.882442 
43 3 5.0328 3.49535 97.2757 0.384778 
16 4 93.8417 1.65282 98.2936 -0.712293 
1 1 97.2318 0.487265 99.2242 1.3128 
3 4 96.3162 1.84398 99.2392 -0.706053 
5 4 98.7532 0.851392 98.7099 -0.861407 
8 1 94.7561 2.05316 99.5852 1.22064 
30 3 93.7771 2.36089 97.654 0.355505 
10 4 1.51386 99.0798 98.6894 -1.06051 
11 2 2.96905 97.81 98.7334 2.18542 
34 4 3.27264 97.4129 96.8374 -0.829509 
35 3 3.87327 97.6148 96.161 0.391693 
36 4 4.53461 98.947 99.0251 -0.858743 
37 3 4.78236 99.7037 99.5315 0.427512 
38 4 2.97537 95.9068 99.2423 -0.86579 
39 3 3.08489 95.0713 98.8532 0.385417 
25 3 93.744 99.7976 98.5047 0.401917 
4 4 96.5674 99.3332 98.2866 -0.713237 
9 1 95.3728 98.2894 98.5383 1.24527 
22 4 95.0484 97.5537 97.1134 -0.621028 
23 4 93.9843 98.9969 99.0183 -0.708757 
24 4 95.8452 97.1645 99.6231 -0.649773 
26 3 95.8111 97.1619 96.7008 0.364512 
