ITEM: TIMESTEP
0
ITEM: NUMBER OF ATOMS
51
ITEM: BOX BOUNDS pp pp pp
0.0000000000000000e+00 1.0000000000000000e+02
0.0000000000000000e+00 1.0000000000000000e+02
0.0000000000000000e+00 1.0000000000000000e+02
ITEM: ATOMS id type x y z q 
12 4 0.86698 0.24462 1.23076 -1.03498 
40 4 4.50414 1.25758 0.3151 -0.901804 
41 3 4.43193 1.04309 1.26907 0.393746 
44 4 3.58125 4.36695 0.26222 -0.863094 
45 3 3.10525 5.09228 0.67097 0.371165 
48 4 3.70373 0.30844 2.79269 -0.882617 
49 3 4.03239 0.59051 3.65327 0.354167 
17 4 94.5531 3.68028 0.05984 -0.636348 
18 4 94.2328 1.08545 0.81639 -0.699595 
20 4 95.9601 0.60192 2.98173 -0.651473 
28 3 95.2189 0.84544 2.39047 0.40323 
29 3 93.956 0.21773 0.45311 0.390391 
31 3 95.3715 4.12226 0.31086 0.35339 
32 3 99.1638 0.10482 2.53314 0.344668 
13 2 2.16734 99.1511 2.23145 1.97312 
46 4 2.79971 97.7705 0.92916 -0.972044 
47 3 2.84693 96.7952 0.86834 0.397308 
50 4 1.20316 98.4317 3.7544 -0.831809 
51 3 0.25203 98.5526 3.9275 0.396593 
2 4 97.3559 99.9372 0.73154 -0.747933 
7 1 97.0482 99.5993 2.29443 1.21913 
19 4 96.494 98.027 2.26095 -0.694738 
21 4 98.4873 99.6881 3.10045 -0.658517 
27 3 96.0706 97.3974 0.54609 0.415729 
33 3 95.9436 97.7437 2.99954 0.348615 
6 2 0.64266 0.57559 99.2467 2.00186 
14 4 1.84023 2.08882 98.8519 -1.00892 
15 2 3.68618 2.71423 99.2358 2.02113 
42 4 4.69582 2.91089 97.573 -0.838877 
43 3 5.05284 3.52807 96.93 0.371257 
16 4 93.6974 1.76732 98.3428 -0.680345 
1 1 97.2364 0.50373 99.1976 1.30715 
3 4 96.2865 1.8573 99.2101 -0.681578 
5 4 98.733 0.87374 98.691 -0.814156 
8 1 94.7067 2.11319 99.6091 1.2015 
30 3 93.7592 2.34318 97.5726 0.345403 
10 4 1.42074 98.9765 98.4959 -1.00598 
11 2 3.08134 97.8014 98.4281 2.04072 
34 4 3.27633 97.3519 96.5224 -0.813882 
35 3 3.88152 97.644 95.8337 0.367493 
36 4 4.62207 98.9366 98.7751 -0.853778 
37 3 4.81737 99.6974 99.3585 0.411426 
38 4 3.02671 95.9249 99.204 -0.814628 
39 3 3.11436 95.1181 98.6848 0.353107 
25 3 93.6111 99.6328 98.3972 0.385508 
4 4 96.5302 99.3435 98.2809 -0.687025 
9 1 95.3481 98.2028 98.5344 1.21925 
22 4 95.0261 97.4787 97.0997 -0.628217 
23 4 93.9592 98.9795 99.0264 -0.693828 
24 4 95.7801 97.113 99.6598 -0.650046 
26 3 95.7877 97.1319 96.6225 0.359164 
ITEM: TIMESTEP
72
ITEM: NUMBER OF ATOMS
51
ITEM: BOX BOUNDS pp pp pp
0.0000000000000000e+00 1.0000000000000000e+02
0.0000000000000000e+00 1.0000000000000000e+02
0.0000000000000000e+00 1.0000000000000000e+02
ITEM: ATOMS id type x y z q 
12 4 0.876945 0.185959 1.1277 -1.12036 
40 4 4.31819 1.31851 0.195387 -0.954671 
41 3 4.38363 1.03191 1.09686 0.406916 
44 4 3.56043 4.3245 0.166291 -0.895656 
45 3 3.002 4.94203 0.576499 0.375883 
48 4 3.58512 0.236927 2.67926 -0.938943 
49 3 4.01171 0.502485 3.46502 0.372997 
17 4 94.535 3.63899 -0.0576824 -0.647627 
18 4 94.2297 1.08324 0.774344 -0.710559 
20 4 95.9773 0.570027 2.88041 -0.643832 
28 3 95.3761 0.901196 2.19989 0.403808 
29 3 94.081 0.173785 0.434387 0.377097 
31 3 95.3307 4.05734 0.263496 0.356439 
32 3 99.2749 -0.0939054 2.53116 0.346335 
13 2 2.10619 99.1499 2.11358 2.12528 
46 4 2.6953 97.7777 0.858063 -1.06822 
47 3 2.85965 96.8346 0.863877 0.380616 
50 4 1.09726 98.481 3.59169 -0.8871 
51 3 0.232319 98.5542 3.93363 0.432908 
2 4 97.4916 99.8323 0.725699 -0.766914 
7 1 97.1228 99.5238 2.27992 1.17935 
19 4 96.4971 97.9664 2.34534 -0.682526 
21 4 98.5611 99.6529 3.12174 -0.654638 
27 3 96.1405 97.5576 0.507182 0.409724 
33 3 95.9352 97.8236 3.10849 0.35582 
6 2 0.583674 0.638828 99.3075 2.20335 
14 4 1.7396 2.08142 99.0471 -1.13733 
15 2 3.47383 2.70078 99.1812 2.19374 
42 4 4.37799 2.93443 97.524 -0.888113 
43 3 5.01884 3.48107 97.1325 0.386284 
16 4 93.9651 1.66714 98.2191 -0.711921 
1 1 97.2477 0.479456 99.253 1.31957 
3 4 96.366 1.85235 99.3851 -0.707689 
5 4 98.7559 0.832502 98.7315 -0.868996 
8 1 94.7794 2.06095 99.5812 1.21463 
30 3 93.7477 2.43503 97.6883 0.359277 
10 4 1.55009 99.1264 98.6567 -1.07258 
11 2 2.96595 97.8185 98.6344 2.19015 
34 4 3.18746 97.4796 96.7136 -0.83001 
35 3 3.78761 97.6552 96.0287 0.390342 
36 4 4.5562 98.916 98.9216 -0.859478 
37 3 4.80563 99.6948 99.3936 0.426819 
38 4 2.98373 95.9108 99.1033 -0.867219 
39 3 3.10524 95.085 98.6977 0.384556 
25 3 93.8217 99.8301 98.5241 0.401901 
4 4 96.5469 99.386 98.2682 -0.710918 
9 1 95.4 98.2905 98.5263 1.24525 
22 4 95.1123 97.5235 97.1077 -0.619647 
23 4 94.0159 99.0044 99.0133 -0.707129 
24 4 95.9059 97.2076 99.639 -0.651168 
26 3 95.8885 97.1449 96.7065 0.364213 
