ITEM: TIMESTEP
0
ITEM: NUMBER OF ATOMS
51
ITEM: BOX BOUNDS pp pp pp
0.0000000000000000e+00 1.0000000000000000e+02
0.0000000000000000e+00 1.0000000000000000e+02
0.0000000000000000e+00 1.0000000000000000e+02
ITEM: ATOMS id type x y z q 
12 4 0.60804 0.24313 1.42717 -1.04821 
40 4 4.33022 1.19449 0.84953 -0.901916 
41 3 4.16508 0.99174 1.79446 0.39371 
44 4 3.4634 4.31575 0.67912 -0.86319 
45 3 2.96193 5.05225 1.03391 0.370959 
48 4 3.28535 0.28451 3.24956 -0.882435 
49 3 3.53554 0.57155 4.13455 0.354638 
17 4 94.5531 3.68028 0.05984 -0.636266 
18 4 94.2328 1.08545 0.81639 -0.699058 
20 4 95.9601 0.60192 2.98173 -0.651707 
28 3 95.2189 0.84544 2.39047 0.404085 
29 3 93.956 0.21773 0.45311 0.390925 
31 3 95.3715 4.12226 0.31086 0.353488 
32 3 99.1638 0.10482 2.53314 0.366878 
13 2 1.79152 99.1427 2.55699 1.97524 
46 4 2.52311 97.7388 1.33392 -0.97206 
47 3 2.56116 96.7624 1.28742 0.397466 
50 4 0.67719 98.454 3.98896 -0.832608 
2 4 97.3559 99.9372 0.73154 -0.752453 
7 1 97.0482 99.5993 2.29443 1.22029 
19 4 96.494 98.027 2.26095 -0.698109 
21 4 98.4873 99.6881 3.10045 -0.692095 
27 3 96.0706 97.3974 0.54609 0.415524 
33 3 95.9436 97.7437 2.99954 0.348214 
51 3 99.7159 98.5902 4.07018 0.423021 
6 2 0.57698 0.55499 99.4276 2.00322 
14 4 1.82912 2.04671 99.133 -1.0093 
15 2 3.63981 2.65033 99.6835 2.02071 
42 4 4.80473 2.81415 98.1217 -0.839019 
43 3 5.23009 3.419 97.5093 0.371226 
16 4 93.6974 1.76732 98.3428 -0.680511 
1 1 97.2364 0.50373 99.1976 1.29975 
3 4 96.2865 1.8573 99.2101 -0.680944 
5 4 98.733 0.87374 98.691 -0.809372 
8 1 94.7067 2.11319 99.6091 1.20276 
30 3 93.7592 2.34318 97.5726 0.345088 
10 4 1.39826 98.9368 98.7695 -1.00562 
11 2 3.03995 97.7378 98.8705 2.04082 
34 4 3.40714 97.2643 96.9962 -0.813847 
35 3 4.07895 97.5401 96.365 0.367254 
36 4 4.55799 98.855 99.3504 -0.854139 
37 3 4.70879 99.6195 99.9422 0.411225 
38 4 2.88408 95.8711 99.6562 -0.814419 
39 3 3.00817 95.0573 99.1555 0.353311 
25 3 93.6111 99.6328 98.3972 0.385382 
4 4 96.5302 99.3435 98.2809 -0.685124 
9 1 95.3481 98.2028 98.5344 1.21983 
22 4 95.0261 97.4787 97.0997 -0.628389 
23 4 93.9592 98.9795 99.0264 -0.693257 
24 4 95.7801 97.113 99.6598 -0.649891 
26 3 95.7877 97.1319 96.6225 0.358907 
ITEM: TIMESTEP
30
ITEM: NUMBER OF ATOMS
51
ITEM: BOX BOUNDS pp pp pp
0.0000000000000000e+00 1.0000000000000000e+02
0.0000000000000000e+00 1.0000000000000000e+02
0.0000000000000000e+00 1.0000000000000000e+02
ITEM: ATOMS id type x y z q 
12 4 0.71339 0.19105 1.30577 -1.09936 
40 4 4.16974 1.20742 0.78605 -0.95427 
41 3 4.19432 0.985458 1.71485 0.409693 
44 4 3.49932 4.23757 0.592688 -0.894728 
45 3 2.91169 4.87718 0.922242 0.372469 
48 4 3.24634 0.249973 3.19428 -0.926376 
49 3 3.5671 0.558285 4.01529 0.367863 
17 4 94.5403 3.6159 -0.0204022 -0.644761 
18 4 94.247 1.05824 0.800185 -0.716054 
20 4 95.915 0.551563 2.93531 -0.647721 
28 3 95.2758 0.905889 2.29866 0.407753 
29 3 94.0085 0.160187 0.461373 0.385135 
31 3 95.3389 4.03885 0.288058 0.353745 
32 3 99.1682 0.0910573 2.56277 0.349565 
13 2 1.81209 99.1493 2.48528 2.07432 
46 4 2.47632 97.7448 1.23619 -1.03687 
47 3 2.60661 96.7936 1.25414 0.381267 
50 4 0.665209 98.4646 3.87365 -0.871724 
2 4 97.4658 99.9576 0.745132 -0.771214 
7 1 97.0615 99.5592 2.26774 1.19035 
19 4 96.4827 97.9831 2.29429 -0.691654 
21 4 98.4787 99.7108 3.12503 -0.672597 
27 3 96.0545 97.4573 0.51537 0.409394 
33 3 95.9432 97.7934 3.06859 0.352037 
51 3 99.7666 98.5489 4.13369 0.441713 
6 2 0.542539 0.604646 99.4446 2.17405 
14 4 1.76879 2.01481 99.2755 -1.1271 
15 2 3.49132 2.58618 99.6446 2.18293 
42 4 4.60356 2.78569 98.11 -0.882567 
43 3 5.14559 3.41902 97.6994 0.384558 
16 4 93.8696 1.65615 98.2716 -0.712128 
1 1 97.2359 0.492603 99.2259 1.30701 
3 4 96.3241 1.84624 99.2642 -0.705671 
5 4 98.7537 0.860555 98.6947 -0.844543 
8 1 94.7599 2.03961 99.5905 1.22438 
30 3 93.7554 2.3567 97.6222 0.356288 
10 4 1.5024 99.0537 98.8756 -1.06719 
11 2 2.92488 97.7707 99.0147 2.19287 
34 4 3.34716 97.3683 97.1416 -0.829781 
35 3 4.00201 97.545 96.507 0.389734 
36 4 4.47143 98.8854 99.4193 -0.863341 
37 3 4.70111 99.6214 99.972 0.426511 
38 4 2.87218 95.8866 99.5459 -0.871489 
39 3 2.99917 95.0433 99.1785 0.38404 
25 3 93.7603 99.8188 98.4777 0.402269 
4 4 96.5744 99.3372 98.2908 -0.711183 
9 1 95.3749 98.2982 98.5358 1.24754 
22 4 95.056 97.5621 97.1083 -0.624075 
23 4 93.9992 99.0318 99.0215 -0.711849 
24 4 95.8407 97.1704 99.6173 -0.65324 
26 3 95.8149 97.1533 96.7035 0.36398 
