ITEM: TIMESTEP
0
ITEM: NUMBER OF ATOMS
51
ITEM: BOX BOUNDS pp pp pp
0.0000000000000000e+00 1.0000000000000000e+02
0.0000000000000000e+00 1.0000000000000000e+02
0.0000000000000000e+00 1.0000000000000000e+02
ITEM: ATOMS id type x y z q 
12 4 0.75329 0.24323 1.32177 -1.04007 
40 4 4.4326 1.22831 0.55644 -0.901859 
41 3 4.31864 1.01892 1.50747 0.393712 
44 4 3.53343 4.34326 0.45028 -0.863128 
45 3 3.04537 5.07362 0.83517 0.371085 
48 4 3.52171 0.29637 3.0022 -0.882526 
49 3 3.8155 0.58049 3.87464 0.354369 
17 4 94.5531 3.68028 0.05984 -0.636319 
18 4 94.2328 1.08545 0.81639 -0.699364 
20 4 95.9601 0.60192 2.98173 -0.651432 
28 3 95.2189 0.84544 2.39047 0.403592 
29 3 93.956 0.21773 0.45311 0.390618 
31 3 95.3715 4.12226 0.31086 0.353451 
32 3 99.1638 0.10482 2.53314 0.352981 
13 2 2.00282 99.1462 2.38166 1.97396 
46 4 2.6806 97.7553 1.11366 -0.97204 
47 3 2.72389 96.7795 1.05936 0.397395 
50 4 0.97026 98.4404 3.86565 -0.832439 
51 3 0.01348 98.5683 3.99773 0.40748 
2 4 97.3559 99.9372 0.73154 -0.749996 
7 1 97.0482 99.5993 2.29443 1.21969 
19 4 96.494 98.027 2.26095 -0.696065 
21 4 98.4873 99.6881 3.10045 -0.671933 
27 3 96.0706 97.3974 0.54609 0.415633 
33 3 95.9436 97.7437 2.99954 0.34858 
6 2 0.61539 0.56601 99.3285 2.0023 
14 4 1.83862 2.06957 98.9779 -1.00907 
15 2 3.67076 2.68494 99.4368 2.02094 
42 4 4.7512 2.86704 97.8174 -0.838921 
43 3 5.13921 3.47878 97.1873 0.371267 
16 4 93.6974 1.76732 98.3428 -0.680422 
1 1 97.2364 0.50373 99.1976 1.30399 
3 4 96.2865 1.8573 99.2101 -0.681287 
5 4 98.733 0.87374 98.691 -0.812054 
8 1 94.7067 2.11319 99.6091 1.20205 
30 3 93.7592 2.34318 97.5726 0.345282 
10 4 1.41394 98.9583 98.6186 -1.00581 
11 2 3.06809 97.7723 98.6267 2.04074 
34 4 3.34063 97.3123 96.733 -0.813848 
35 3 3.97636 97.5971 96.0692 0.367411 
36 4 4.60024 98.8992 99.0334 -0.853934 
37 3 4.7757 99.6615 99.6212 0.411341 
38 4 2.96821 95.9 99.4082 -0.814531 
39 3 3.07241 95.0901 98.8968 0.353206 
25 3 93.6111 99.6328 98.3972 0.385456 
4 4 96.5302 99.3435 98.2809 -0.686179 
9 1 95.3481 98.2028 98.5344 1.21949 
22 4 95.0261 97.4787 97.0997 -0.628291 
23 4 93.9592 98.9795 99.0264 -0.693589 
24 4 95.7801 97.113 99.6598 -0.649975 
26 3 95.7877 97.1319 96.6225 0.359061 
ITEM: TIMESTEP
27
ITEM: NUMBER OF ATOMS
51
ITEM: BOX BOUNDS pp pp pp
0.0000000000000000e+00 1.0000000000000000e+02
0.0000000000000000e+00 1.0000000000000000e+02
0.0000000000000000e+00 1.0000000000000000e+02
ITEM: ATOMS id type x y z q 
12 4 0.825604 0.200521 1.25195 -1.08193 
40 4 4.33359 1.31343 0.551195 -0.922447 
41 3 4.35304 1.00629 1.44978 0.404277 
44 4 3.60677 4.32563 0.449242 -0.872062 
45 3 3.0131 4.98726 0.77614 0.359467 
48 4 3.46493 0.26479 3.03316 -0.92473 
49 3 3.8311 0.584943 3.82877 0.375255 
17 4 94.5585 3.66075 0.0529652 -0.640708 
18 4 94.2411 1.08628 0.809662 -0.708868 
20 4 95.9311 0.606481 2.98082 -0.644909 
28 3 95.2242 0.855421 2.36612 0.406273 
29 3 93.974 0.224023 0.436841 0.389447 
31 3 95.3657 4.10775 0.305779 0.352799 
32 3 99.1738 0.0945536 2.53926 0.353823 
13 2 2.02943 99.1585 2.34725 2.06616 
46 4 2.65852 97.7683 1.08074 -1.01221 
47 3 2.73111 96.8167 1.05397 0.381143 
50 4 0.924528 98.5001 3.77312 -0.873853 
51 3 0.031539 98.5254 4.06672 0.433507 
2 4 97.3994 99.9477 0.734768 -0.753331 
7 1 97.0472 99.5773 2.30402 1.18929 
19 4 96.4961 98.0064 2.28937 -0.695874 
21 4 98.5008 99.6994 3.09998 -0.663399 
27 3 96.0634 97.4147 0.511641 0.407877 
33 3 95.938 97.7557 3.01926 0.350474 
6 2 0.611094 0.551534 99.3569 2.07419 
14 4 1.88379 1.98659 99.0608 -1.07515 
15 2 3.59912 2.69229 99.4141 2.1144 
42 4 4.72728 2.83507 97.8398 -0.854993 
43 3 5.09569 3.47823 97.255 0.370504 
16 4 93.727 1.76428 98.3438 -0.693287 
1 1 97.2298 0.496578 99.221 1.24414 
3 4 96.2668 1.83481 99.2256 -0.69131 
5 4 98.7921 0.935147 98.5878 -0.790743 
8 1 94.7231 2.09049 99.6059 1.23133 
30 3 93.7672 2.34686 97.5914 0.350462 
10 4 1.50646 98.968 98.6827 -1.07764 
11 2 2.9869 97.8048 98.6904 2.21934 
34 4 3.36772 97.3685 96.8174 -0.827612 
35 3 3.93644 97.573 96.0926 0.387722 
36 4 4.50864 98.9031 99.0591 -0.882908 
37 3 4.78603 99.6302 99.5953 0.419565 
38 4 2.98615 95.97 99.2544 -0.892702 
39 3 3.06001 95.09 98.9724 0.390432 
25 3 93.6336 99.6404 98.4157 0.386382 
4 4 96.5257 99.323 98.3048 -0.696452 
9 1 95.3483 98.2399 98.5366 1.24276 
22 4 95.0352 97.4884 97.1126 -0.630619 
23 4 93.9697 98.9729 99.0257 -0.707243 
24 4 95.7836 97.1109 99.6326 -0.64654 
26 3 95.7858 97.139 96.6365 0.360512 
