ITEM: TIMESTEP
0
ITEM: NUMBER OF ATOMS
51
ITEM: BOX BOUNDS pp pp pp
0.0000000000000000e+00 1.0000000000000000e+02
0.0000000000000000e+00 1.0000000000000000e+02
0.0000000000000000e+00 1.0000000000000000e+02
ITEM: ATOMS id type x y z q 
12 4 0.75329 0.24323 1.32177 -1.04007 
40 4 4.4326 1.22831 0.55644 -0.901859 
41 3 4.31864 1.01892 1.50747 0.393712 
44 4 3.53343 4.34326 0.45028 -0.863128 
45 3 3.04537 5.07362 0.83517 0.371085 
48 4 3.52171 0.29637 3.0022 -0.882526 
49 3 3.8155 0.58049 3.87464 0.354369 
17 4 94.5531 3.68028 0.05984 -0.636319 
18 4 94.2328 1.08545 0.81639 -0.699364 
20 4 95.9601 0.60192 2.98173 -0.651432 
28 3 95.2189 0.84544 2.39047 0.403592 
29 3 93.956 0.21773 0.45311 0.390618 
31 3 95.3715 4.12226 0.31086 0.353451 
32 3 99.1638 0.10482 2.53314 0.352981 
13 2 2.00282 99.1462 2.38166 1.97396 
46 4 2.6806 97.7553 1.11366 -0.97204 
47 3 2.72389 96.7795 1.05936 0.397395 
50 4 0.97026 98.4404 3.86565 -0.832439 
51 3 0.01348 98.5683 3.99773 0.40748 
2 4 97.3559 99.9372 0.73154 -0.749996 
7 1 97.0482 99.5993 2.29443 1.21969 
19 4 96.494 98.027 2.26095 -0.696065 
21 4 98.4873 99.6881 3.10045 -0.671933 
27 3 96.0706 97.3974 0.54609 0.415633 
33 3 95.9436 97.7437 2.99954 0.34858 
6 2 0.61539 0.56601 99.3285 2.0023 
14 4 1.83862 2.06957 98.9779 -1.00907 
15 2 3.67076 2.68494 99.4368 2.02094 
42 4 4.7512 2.86704 97.8174 -0.838921 
43 3 5.13921 3.47878 97.1873 0.371267 
16 4 93.6974 1.76732 98.3428 -0.680422 
1 1 97.2364 0.50373 99.1976 1.30399 
3 4 96.2865 1.8573 99.2101 -0.681287 
5 4 98.733 0.87374 98.691 -0.812054 
8 1 94.7067 2.11319 99.6091 1.20205 
30 3 93.7592 2.34318 97.5726 0.345282 
10 4 1.41394 98.9583 98.6186 -1.00581 
11 2 3.06809 97.7723 98.6267 2.04074 
34 4 3.34063 97.3123 96.733 -0.813848 
35 3 3.97636 97.5971 96.0692 0.367411 
36 4 4.60024 98.8992 99.0334 -0.853934 
37 3 4.7757 99.6615 99.6212 0.411341 
38 4 2.96821 95.9 99.4082 -0.814531 
39 3 3.07241 95.0901 98.8968 0.353206 
25 3 93.6111 99.6328 98.3972 0.385456 
4 4 96.5302 99.3435 98.2809 -0.686179 
9 1 95.3481 98.2028 98.5344 1.21949 
22 4 95.0261 97.4787 97.0997 -0.628291 
23 4 93.9592 98.9795 99.0264 -0.693589 
24 4 95.7801 97.113 99.6598 -0.649975 
26 3 95.7877 97.1319 96.6225 0.359061 
ITEM: TIMESTEP
182
ITEM: NUMBER OF ATOMS
51
ITEM: BOX BOUNDS pp pp pp
0.0000000000000000e+00 1.0000000000000000e+02
0.0000000000000000e+00 1.0000000000000000e+02
0.0000000000000000e+00 1.0000000000000000e+02
ITEM: ATOMS id type x y z q 
12 4 0.869615 0.125179 1.30643 -1.09779 
40 4 4.22345 1.38904 0.287403 -0.94827 
41 3 4.26001 1.0345 1.17206 0.409795 
44 4 3.37241 4.39716 0.403231 -0.889716 
45 3 2.78746 5.04702 0.721763 0.376336 
48 4 3.5873 0.148294 2.69605 -0.929348 
49 3 4.11247 0.45373 3.40893 0.364387 
17 4 94.5219 3.63322 -0.0704205 -0.652713 
18 4 94.1595 1.03847 0.648884 -0.722808 
20 4 96.0041 0.730913 2.69466 -0.649352 
28 3 95.4314 0.987809 1.9513 0.398059 
29 3 94.0677 0.133762 0.298244 0.380862 
31 3 95.2791 4.06691 0.296324 0.360979 
32 3 99.2027 -0.153053 2.73652 0.344071 
13 2 2.02205 99.0454 2.36926 2.08083 
46 4 2.50264 97.5973 1.08886 -1.03777 
47 3 2.58202 96.6429 1.10095 0.37467 
50 4 1.05057 98.4029 3.9039 -0.885281 
51 3 0.188545 98.4344 4.25645 0.418815 
2 4 97.5944 99.6763 0.741992 -0.767934 
7 1 97.0489 99.5543 2.27495 1.17739 
19 4 96.3072 98.0598 2.4201 -0.678768 
21 4 98.4357 99.6097 3.22413 -0.653808 
27 3 96.1081 97.6645 0.533684 0.414619 
33 3 95.8886 97.9349 3.27809 0.358281 
6 2 0.594155 0.608637 99.4778 2.19294 
14 4 1.64826 2.12472 99.2098 -1.12844 
15 2 3.35675 2.81234 99.3412 2.18836 
42 4 4.27245 3.0865 97.6939 -0.888182 
43 3 5.12519 3.28092 97.3742 0.383249 
16 4 94.1595 1.70493 98.0748 -0.684386 
1 1 97.2713 0.446707 99.3373 1.30784 
3 4 96.4204 1.7995 99.5942 -0.712415 
5 4 98.7747 0.830281 98.8025 -0.838518 
8 1 94.8201 2.05358 99.5938 1.19611 
30 3 93.5962 2.43648 97.7706 0.351842 
10 4 1.54544 99.0867 98.8397 -1.07183 
11 2 2.91382 97.737 98.8712 2.19163 
34 4 3.2397 97.4957 96.9495 -0.828131 
35 3 3.84477 97.747 96.2931 0.387591 
36 4 4.4657 98.8392 99.3013 -0.862183 
37 3 4.65646 99.6812 99.6898 0.424794 
38 4 2.84992 95.8028 99.2085 -0.862744 
39 3 2.97039 95.0017 98.7541 0.385211 
25 3 93.9225 99.8552 98.3676 0.407195 
4 4 96.5731 99.4157 98.2942 -0.704996 
9 1 95.4338 98.2771 98.4949 1.24053 
22 4 95.2984 97.4501 97.0894 -0.6206 
23 4 94.0177 99.0385 98.8334 -0.709016 
24 4 95.8498 97.2775 99.7008 -0.656971 
26 3 96.1316 97.1768 96.7421 0.365595 
