ITEM: TIMESTEP
0
ITEM: NUMBER OF ATOMS
51
ITEM: BOX BOUNDS pp pp pp
0.0000000000000000e+00 1.0000000000000000e+02
0.0000000000000000e+00 1.0000000000000000e+02
0.0000000000000000e+00 1.0000000000000000e+02
ITEM: ATOMS id type x y z q 
12 4 1.5909 0.29336 0.39266 -1.0168 
48 4 4.77216 0.46992 0.9751 -0.882481 
49 3 5.34569 0.74593 1.69834 0.353414 
17 4 94.5531 3.68028 0.05984 -0.636067 
18 4 94.2328 1.08545 0.81639 -0.700999 
20 4 95.9601 0.60192 2.98173 -0.654776 
28 3 95.2189 0.84544 2.39047 0.40125 
29 3 93.956 0.21773 0.45311 0.389308 
31 3 95.3715 4.12226 0.31086 0.352298 
32 3 99.1638 0.10482 2.53314 0.330119 
13 2 3.18862 99.2458 0.88061 1.96907 
50 4 2.79282 98.4332 2.59804 -0.830693 
51 3 1.94234 98.4969 3.06903 0.35714 
2 4 97.3559 99.9372 0.73154 -0.732983 
7 1 97.0482 99.5993 2.29443 1.21681 
19 4 96.494 98.027 2.26095 -0.690288 
21 4 98.4873 99.6881 3.10045 -0.614525 
27 3 96.0706 97.3974 0.54609 0.416315 
33 3 95.9436 97.7437 2.99954 0.346079 
6 2 0.73117 0.66571 98.5986 2.00245 
14 4 1.67353 2.25259 97.9104 -1.00864 
15 2 3.51659 2.96757 97.7156 2.02275 
37 3 4.75727 0.01513 97.3419 0.411777 
40 4 4.69839 1.52899 98.4152 -0.901539 
41 3 4.94367 1.28484 99.3326 0.394395 
42 4 3.93342 3.26477 95.8285 -0.839321 
43 3 4.03956 3.91797 95.1329 0.370525 
44 4 3.67319 4.58334 98.7929 -0.86321 
45 3 3.32155 5.27001 99.3627 0.371326 
16 4 93.6974 1.76732 98.3428 -0.679704 
1 1 97.2364 0.50373 99.1976 1.32393 
3 4 96.2865 1.8573 99.2101 -0.684281 
5 4 98.733 0.87374 98.691 -0.827512 
8 1 94.7067 2.11319 99.6091 1.19831 
30 3 93.7592 2.34318 97.5726 0.345529 
10 4 1.29749 99.1328 97.571 -1.00758 
11 2 2.89891 98.0529 96.929 2.04119 
34 4 2.49495 97.6672 95.0422 -0.814986 
35 3 2.83553 98.0107 94.2105 0.367271 
36 4 4.41916 99.261 96.8181 -0.852997 
38 4 3.17597 96.1557 97.5999 -0.815503 
39 3 3.12821 95.3695 97.0452 0.352278 
46 4 3.43157 97.9382 99.3863 -0.971761 
47 3 3.4991 96.969 99.2714 0.396371 
25 3 93.6111 99.6328 98.3972 0.38565 
4 4 96.5302 99.3435 98.2809 -0.693358 
9 1 95.3481 98.2028 98.5344 1.21838 
22 4 95.0261 97.4787 97.0997 -0.627611 
23 4 93.9592 98.9795 99.0264 -0.695082 
24 4 95.7801 97.113 99.6598 -0.650779 
26 3 95.7877 97.1319 96.6225 0.359551 
ITEM: TIMESTEP
245
ITEM: NUMBER OF ATOMS
51
ITEM: BOX BOUNDS pp pp pp
0.0000000000000000e+00 1.0000000000000000e+02
0.0000000000000000e+00 1.0000000000000000e+02
0.0000000000000000e+00 1.0000000000000000e+02
ITEM: ATOMS id type x y z q 
12 4 1.33418 0.222374 0.317114 -1.09665 
48 4 4.32561 0.30209 0.647582 -0.936347 
49 3 5.1628 0.461885 1.03702 0.362624 
17 4 94.6212 3.59095 0.0300933 -0.653094 
18 4 94.3181 0.981765 0.740288 -0.713143 
20 4 96.3884 0.731707 2.59807 -0.665721 
28 3 95.7065 0.962694 1.94567 0.400079 
29 3 94.1657 0.0972291 0.339449 0.373132 
31 3 95.4091 4.04623 0.315607 0.35854 
32 3 99.5007 -0.265149 2.20629 0.33995 
13 2 2.78445 99.1585 0.892841 2.11117 
50 4 2.51655 98.4383 2.64367 -0.89471 
51 3 1.84834 98.3549 3.2843 0.395654 
2 4 97.6527 99.5403 0.560131 -0.778289 
7 1 97.3462 99.5109 2.11238 1.25022 
19 4 96.5364 98.1237 2.36428 -0.693342 
21 4 98.8087 99.529 2.83596 -0.640617 
27 3 96.2477 97.732 0.517413 0.417708 
33 3 96.0163 98.1075 3.16805 0.358711 
6 2 0.683615 0.810472 98.6234 2.20671 
14 4 1.54704 2.38781 98.1372 -1.14052 
15 2 3.17266 3.15142 97.7009 2.19395 
37 3 4.67976 0.0462931 97.5701 0.425389 
40 4 4.345 1.74533 98.2662 -0.944675 
41 3 4.59331 1.30431 99.073 0.407933 
42 4 3.44695 3.48635 95.8488 -0.892594 
43 3 4.11832 3.7497 95.2633 0.38237 
44 4 3.46252 4.71961 98.7382 -0.89265 
45 3 3.01954 5.26656 99.3442 0.377921 
16 4 94.1397 1.71924 98.207 -0.711297 
1 1 97.3118 0.383741 99.2333 1.34173 
3 4 96.4905 1.76992 99.5365 -0.717784 
5 4 98.7722 0.757505 98.6298 -0.883726 
8 1 94.9 2.02874 99.6227 1.20799 
30 3 93.5841 2.44909 97.9197 0.357398 
10 4 1.54381 99.378 97.6933 -1.06967 
11 2 2.86213 98.0192 97.2986 2.18908 
34 4 2.53903 97.8189 95.3704 -0.830382 
35 3 2.85092 98.1471 94.5614 0.385013 
36 4 4.43962 99.173 97.2975 -0.860392 
38 4 3.03246 96.0804 97.578 -0.861839 
39 3 3.0982 95.2999 97.0806 0.383997 
46 4 2.9586 97.7696 99.5182 -1.06111 
47 3 3.09357 96.824 99.4799 0.382166 
25 3 93.932 99.884 98.4227 0.396191 
4 4 96.5145 99.3929 98.2007 -0.717288 
9 1 95.4095 98.2562 98.4973 1.24047 
22 4 95.2479 97.3613 97.1326 -0.613883 
23 4 94.0046 99.0091 98.8584 -0.696838 
24 4 95.8736 97.2967 99.7365 -0.642018 
26 3 96.0619 97.2713 96.6445 0.362498 
