ITEM: TIMESTEP
0
ITEM: NUMBER OF ATOMS
51
ITEM: BOX BOUNDS pp pp pp
0.0000000000000000e+00 1.0000000000000000e+02
0.0000000000000000e+00 1.0000000000000000e+02
0.0000000000000000e+00 1.0000000000000000e+02
ITEM: ATOMS id type x y z q 
12 4 1.33 0.26554 0.76121 -1.0216 
41 3 4.81314 1.17512 0.13809 0.394121 
48 4 4.41038 0.38996 1.75448 -0.882768 
49 3 4.8898 0.66635 2.54312 0.35355 
17 4 94.5531 3.68028 0.05984 -0.636282 
18 4 94.2328 1.08545 0.81639 -0.700503 
20 4 95.9601 0.60192 2.98173 -0.65318 
28 3 95.2189 0.84544 2.39047 0.401929 
29 3 93.956 0.21773 0.45311 0.38963 
31 3 95.3715 4.12226 0.31086 0.352823 
32 3 99.1638 0.10482 2.53314 0.329441 
13 2 2.8273 99.1953 1.46886 1.97029 
46 4 3.23638 97.8595 0.03698 -0.971973 
50 4 2.19247 98.4179 3.12997 -0.830135 
51 3 1.2891 98.5056 3.48416 0.366436 
2 4 97.3559 99.9372 0.73154 -0.738782 
7 1 97.0482 99.5993 2.29443 1.2174 
19 4 96.494 98.027 2.26095 -0.691281 
21 4 98.4873 99.6881 3.10045 -0.623758 
27 3 96.0706 97.3974 0.54609 0.41612 
33 3 95.9436 97.7437 2.99954 0.347325 
6 2 0.72115 0.62575 98.8649 2.00176 
14 4 1.77911 2.18298 98.2856 -1.00862 
15 2 3.64655 2.85907 98.3253 2.02208 
40 4 4.69555 1.4093 99.1933 -0.901576 
42 4 4.31355 3.11805 96.5056 -0.839012 
43 3 4.52386 3.7579 95.8214 0.370886 
44 4 3.69471 4.48849 99.3924 -0.863094 
45 3 3.28602 5.19082 99.9018 0.371315 
16 4 93.6974 1.76732 98.3428 -0.679952 
1 1 97.2364 0.50373 99.1976 1.31861 
3 4 96.2865 1.8573 99.2101 -0.683076 
5 4 98.733 0.87374 98.691 -0.822743 
8 1 94.7067 2.11319 99.6091 1.19937 
30 3 93.7592 2.34318 97.5726 0.345602 
10 4 1.38472 99.066 97.9411 -1.00688 
11 2 3.03325 97.9453 97.5297 2.04093 
34 4 2.8722 97.5374 95.6114 -0.814378 
35 3 3.32617 97.861 94.8272 0.367481 
36 4 4.58019 99.1219 97.6036 -0.853233 
37 3 4.86259 99.8777 98.1573 0.411699 
38 4 3.17958 96.0541 98.2563 -0.815128 
39 3 3.18833 95.2602 97.7106 0.352617 
47 3 3.29782 96.8875 99.9448 0.396751 
25 3 93.6111 99.6328 98.3972 0.385631 
4 4 96.5302 99.3435 98.2809 -0.690789 
9 1 95.3481 98.2028 98.5344 1.2185 
22 4 95.0261 97.4787 97.0997 -0.627895 
23 4 93.9592 98.9795 99.0264 -0.69466 
24 4 95.7801 97.113 99.6598 -0.650444 
26 3 95.7877 97.1319 96.6225 0.359454 
ITEM: TIMESTEP
102
ITEM: NUMBER OF ATOMS
51
ITEM: BOX BOUNDS pp pp pp
0.0000000000000000e+00 1.0000000000000000e+02
0.0000000000000000e+00 1.0000000000000000e+02
0.0000000000000000e+00 1.0000000000000000e+02
ITEM: ATOMS id type x y z q 
12 4 1.24608 0.216203 0.621942 -1.10507 
41 3 4.70307 1.16211 -0.0309306 0.408116 
48 4 4.1812 0.3268 1.64403 -0.93649 
49 3 4.79631 0.542818 2.31159 0.370819 
17 4 94.5369 3.64675 -0.0514268 -0.647983 
18 4 94.2508 1.08984 0.779215 -0.711471 
20 4 96.0523 0.549382 2.842 -0.659784 
28 3 95.4271 0.877225 2.17361 0.402336 
29 3 94.0987 0.182281 0.435784 0.375674 
31 3 95.3343 4.06735 0.259234 0.355404 
32 3 99.2777 -0.0459977 2.46353 0.337317 
13 2 2.64283 99.2026 1.37948 2.12404 
46 4 3.07232 97.8809 0.00524465 -1.06448 
50 4 2.02977 98.4518 3.02895 -0.888345 
51 3 1.26714 98.4373 3.56125 0.403209 
2 4 97.52 99.8436 0.717941 -0.766596 
7 1 97.1589 99.5047 2.24525 1.23353 
19 4 96.5191 97.9942 2.28404 -0.703828 
21 4 98.5945 99.5973 3.03417 -0.638941 
27 3 96.1494 97.5832 0.544935 0.414781 
33 3 95.9501 97.8257 3.03609 0.355988 
6 2 0.654448 0.706254 98.8781 2.19241 
14 4 1.72587 2.18518 98.4626 -1.13277 
15 2 3.44012 2.86194 98.3021 2.19301 
40 4 4.48455 1.47754 99.1024 -0.95115 
42 4 4.00053 3.14397 96.5055 -0.888643 
43 3 4.54042 3.71196 96.0066 0.38404 
44 4 3.65782 4.45962 99.3098 -0.897063 
45 3 3.16458 5.0501 99.8299 0.374967 
16 4 93.9673 1.66964 98.2269 -0.713552 
1 1 97.2506 0.481681 99.2448 1.33388 
3 4 96.3694 1.85473 99.3686 -0.709684 
5 4 98.7428 0.837257 98.6836 -0.877951 
8 1 94.7857 2.06794 99.5804 1.21419 
30 3 93.7493 2.43915 97.7034 0.358945 
10 4 1.54535 99.2259 98.049 -1.06672 
11 2 2.96478 97.95 97.7667 2.18965 
34 4 2.82551 97.6521 95.8288 -0.828145 
35 3 3.27296 97.8664 95.0439 0.389004 
36 4 4.5529 99.0847 97.7793 -0.85807 
37 3 4.86103 99.8688 98.2073 0.427894 
38 4 3.12435 96.0349 98.1683 -0.867816 
39 3 3.18895 95.2227 97.7234 0.383879 
47 3 3.29311 96.9506 99.9628 0.375092 
25 3 93.8083 99.8284 98.526 0.402178 
4 4 96.5425 99.3815 98.2724 -0.71689 
9 1 95.4048 98.2838 98.5462 1.24638 
22 4 95.1272 97.4962 97.1362 -0.620183 
23 4 94.0195 99.009 99.0228 -0.708388 
24 4 95.9095 97.2181 99.6754 -0.650458 
26 3 95.9086 97.154 96.7123 0.363738 
