ITEM: TIMESTEP
0
ITEM: NUMBER OF ATOMS
51
ITEM: BOX BOUNDS pp pp pp
0.0000000000000000e+00 1.0000000000000000e+02
0.0000000000000000e+00 1.0000000000000000e+02
0.0000000000000000e+00 1.0000000000000000e+02
ITEM: ATOMS id type x y z q 
12 4 1.02397 0.24869 1.09117 -1.02937 
41 3 4.57709 1.08119 0.91735 0.393832 
45 3 3.17906 5.12123 0.43009 0.371242 
48 4 3.95019 0.32966 2.47735 -0.882732 
49 3 4.32824 0.60927 3.31823 0.353909 
17 4 94.5531 3.68028 0.05984 -0.636363 
18 4 94.2328 1.08545 0.81639 -0.699905 
20 4 95.9601 0.60192 2.98173 -0.651822 
28 3 95.2189 0.84544 2.39047 0.402762 
29 3 93.956 0.21773 0.45311 0.390102 
31 3 95.3715 4.12226 0.31086 0.353254 
32 3 99.1638 0.10482 2.53314 0.336502 
13 2 2.3931 99.1612 2.0028 1.97209 
46 4 2.95736 97.7953 0.65457 -0.972052 
47 3 3.00977 96.821 0.58407 0.39715 
50 4 1.5305 98.4227 3.57665 -0.830892 
51 3 0.59066 98.5333 3.80837 0.383889 
2 4 97.3559 99.9372 0.73154 -0.744951 
7 1 97.0482 99.5993 2.29443 1.21841 
19 4 96.494 98.027 2.26095 -0.693254 
21 4 98.4873 99.6881 3.10045 -0.64342 
27 3 96.0706 97.3974 0.54609 0.415865 
33 3 95.9436 97.7437 2.99954 0.348384 
6 2 0.67573 0.59039 99.1269 2.00157 
14 4 1.83293 2.11762 98.6705 -1.00878 
15 2 3.69305 2.75827 98.9454 2.02143 
40 4 4.58885 1.30257 99.9623 -0.901721 
42 4 4.59729 2.97547 97.2254 -0.838866 
43 3 4.90862 3.60023 96.5661 0.371184 
44 4 3.63584 4.40318 99.9879 -0.86307 
16 4 93.6974 1.76732 98.3428 -0.680226 
1 1 97.2364 0.50373 99.1976 1.31129 
3 4 96.2865 1.8573 99.2101 -0.682022 
5 4 98.733 0.87374 98.691 -0.817067 
8 1 94.7067 2.11319 99.6091 1.20076 
30 3 93.7592 2.34318 97.5726 0.345525 
10 4 1.42115 99.0038 98.3187 -1.00625 
11 2 3.08527 97.8452 98.1413 2.04073 
34 4 3.16752 97.41 96.224 -0.813982 
35 3 3.72675 97.7124 95.5018 0.367549 
36 4 4.6338 98.9929 98.4015 -0.853583 
37 3 4.85738 99.7518 98.9773 0.411538 
38 4 3.09548 95.9633 98.9058 -0.814777 
39 3 3.15865 95.1608 98.3764 0.35296 
25 3 93.6111 99.6328 98.3972 0.385566 
4 4 96.5302 99.3435 98.2809 -0.688231 
9 1 95.3481 98.2028 98.5344 1.21894 
22 4 95.0261 97.4787 97.0997 -0.628116 
23 4 93.9592 98.9795 99.0264 -0.694132 
24 4 95.7801 97.113 99.6598 -0.650159 
26 3 95.7877 97.1319 96.6225 0.359284 
ITEM: TIMESTEP
243
ITEM: NUMBER OF ATOMS
51
ITEM: BOX BOUNDS pp pp pp
0.0000000000000000e+00 1.0000000000000000e+02
0.0000000000000000e+00 1.0000000000000000e+02
0.0000000000000000e+00 1.0000000000000000e+02
ITEM: ATOMS id type x y z q 
12 4 0.954955 0.166804 1.01411 -1.11288 
41 3 4.4099 1.08327 0.622276 0.407713 
45 3 2.97015 5.07245 0.370648 0.377399 
48 4 3.77281 0.182038 2.17982 -0.941161 
49 3 4.34986 0.45002 2.8647 0.365383 
17 4 94.5677 3.62472 -0.0297365 -0.652092 
18 4 94.2344 1.04187 0.750876 -0.709884 
20 4 96.1809 0.679663 2.71341 -0.64128 
28 3 95.5611 0.94898 2.01272 0.401072 
29 3 94.0912 0.145399 0.378776 0.375958 
31 3 95.3444 4.07719 0.28878 0.358841 
32 3 99.401 -0.217997 2.46885 0.346021 
13 2 2.21014 99.0867 1.92109 2.11648 
46 4 2.68112 97.6707 0.655974 -1.06542 
47 3 2.80556 96.7227 0.666146 0.383232 
50 4 1.27174 98.4762 3.46859 -0.893313 
51 3 0.415322 98.5382 3.83388 0.430899 
2 4 97.5922 99.6226 0.645617 -0.764071 
7 1 97.2333 99.4876 2.22605 1.17784 
19 4 96.4672 98.0111 2.3969 -0.67772 
21 4 98.6781 99.556 3.05937 -0.656502 
27 3 96.2358 97.6725 0.504474 0.414815 
33 3 95.9757 97.9367 3.21393 0.358219 
6 2 0.640406 0.681801 99.215 2.21503 
14 4 1.6691 2.2022 98.9089 -1.139 
15 2 3.38494 2.88116 98.8803 2.19311 
40 4 4.32864 1.45943 99.7516 -0.948425 
42 4 4.12718 3.14194 97.1473 -0.890805 
43 3 4.90721 3.44317 96.7446 0.384233 
44 4 3.51276 4.47023 99.9172 -0.894359 
16 4 94.1246 1.69713 98.2003 -0.71228 
1 1 97.2945 0.43542 99.2678 1.3214 
3 4 96.4506 1.80562 99.573 -0.712908 
5 4 98.7886 0.801299 98.7351 -0.87392 
8 1 94.8549 2.04918 99.6199 1.21089 
30 3 93.6413 2.44312 97.8385 0.358902 
10 4 1.61525 99.1933 98.5298 -1.07613 
11 2 2.97589 97.8266 98.4424 2.18948 
34 4 3.07538 97.5595 96.4982 -0.830287 
35 3 3.6031 97.8023 95.7754 0.386918 
36 4 4.56306 98.9315 98.7266 -0.86002 
37 3 4.78392 99.7782 99.0845 0.426798 
38 4 3.0091 95.898 98.8232 -0.862813 
39 3 3.11019 95.0922 98.3744 0.384064 
25 3 93.9059 99.8683 98.4738 0.397238 
4 4 96.5298 99.4296 98.2311 -0.708467 
9 1 95.4263 98.2859 98.504 1.24178 
22 4 95.2166 97.4467 97.1115 -0.615963 
23 4 94.022 99.0062 98.9257 -0.698996 
24 4 95.9371 97.2707 99.679 -0.647844 
26 3 96.0331 97.1667 96.7079 0.362855 
