ITEM: TIMESTEP
0
ITEM: NUMBER OF ATOMS
51
ITEM: BOX BOUNDS pp pp pp
0.0000000000000000e+00 1.0000000000000000e+02
0.0000000000000000e+00 1.0000000000000000e+02
0.0000000000000000e+00 1.0000000000000000e+02
ITEM: ATOMS id type x y z q 
12 4 1.02397 0.24869 1.09117 -1.02937 
41 3 4.57709 1.08119 0.91735 0.393832 
45 3 3.17906 5.12123 0.43009 0.371242 
48 4 3.95019 0.32966 2.47735 -0.882732 
49 3 4.32824 0.60927 3.31823 0.353909 
17 4 94.5531 3.68028 0.05984 -0.636363 
18 4 94.2328 1.08545 0.81639 -0.699905 
20 4 95.9601 0.60192 2.98173 -0.651822 
28 3 95.2189 0.84544 2.39047 0.402762 
29 3 93.956 0.21773 0.45311 0.390102 
31 3 95.3715 4.12226 0.31086 0.353254 
32 3 99.1638 0.10482 2.53314 0.336502 
13 2 2.3931 99.1612 2.0028 1.97209 
46 4 2.95736 97.7953 0.65457 -0.972052 
47 3 3.00977 96.821 0.58407 0.39715 
50 4 1.5305 98.4227 3.57665 -0.830892 
51 3 0.59066 98.5333 3.80837 0.383889 
2 4 97.3559 99.9372 0.73154 -0.744951 
7 1 97.0482 99.5993 2.29443 1.21841 
19 4 96.494 98.027 2.26095 -0.693254 
21 4 98.4873 99.6881 3.10045 -0.64342 
27 3 96.0706 97.3974 0.54609 0.415865 
33 3 95.9436 97.7437 2.99954 0.348384 
6 2 0.67573 0.59039 99.1269 2.00157 
14 4 1.83293 2.11762 98.6705 -1.00878 
15 2 3.69305 2.75827 98.9454 2.02143 
40 4 4.58885 1.30257 99.9623 -0.901721 
42 4 4.59729 2.97547 97.2254 -0.838866 
43 3 4.90862 3.60023 96.5661 0.371184 
44 4 3.63584 4.40318 99.9879 -0.86307 
16 4 93.6974 1.76732 98.3428 -0.680226 
1 1 97.2364 0.50373 99.1976 1.31129 
3 4 96.2865 1.8573 99.2101 -0.682022 
5 4 98.733 0.87374 98.691 -0.817067 
8 1 94.7067 2.11319 99.6091 1.20076 
30 3 93.7592 2.34318 97.5726 0.345525 
10 4 1.42115 99.0038 98.3187 -1.00625 
11 2 3.08527 97.8452 98.1413 2.04073 
34 4 3.16752 97.41 96.224 -0.813982 
35 3 3.72675 97.7124 95.5018 0.367549 
36 4 4.6338 98.9929 98.4015 -0.853583 
37 3 4.85738 99.7518 98.9773 0.411538 
38 4 3.09548 95.9633 98.9058 -0.814777 
39 3 3.15865 95.1608 98.3764 0.35296 
25 3 93.6111 99.6328 98.3972 0.385566 
4 4 96.5302 99.3435 98.2809 -0.688231 
9 1 95.3481 98.2028 98.5344 1.21894 
22 4 95.0261 97.4787 97.0997 -0.628116 
23 4 93.9592 98.9795 99.0264 -0.694132 
24 4 95.7801 97.113 99.6598 -0.650159 
26 3 95.7877 97.1319 96.6225 0.359284 
ITEM: TIMESTEP
62
ITEM: NUMBER OF ATOMS
51
ITEM: BOX BOUNDS pp pp pp
0.0000000000000000e+00 1.0000000000000000e+02
0.0000000000000000e+00 1.0000000000000000e+02
0.0000000000000000e+00 1.0000000000000000e+02
ITEM: ATOMS id type x y z q 
12 4 1.03826 0.215433 0.93545 -1.11406 
41 3 4.48973 1.05282 0.677051 0.407008 
45 3 3.05454 5.00714 0.339854 0.376351 
48 4 3.77882 0.250965 2.25174 -0.93252 
49 3 4.31778 0.494774 2.97579 0.367998 
17 4 94.4954 3.63655 -0.0963528 -0.651713 
18 4 94.2392 1.08859 0.773562 -0.712173 
20 4 96.0476 0.637946 2.82992 -0.645845 
28 3 95.4012 0.946121 2.17215 0.403175 
29 3 94.0827 0.167379 0.448855 0.380966 
31 3 95.2466 4.09202 0.275919 0.355364 
32 3 99.1686 0.136856 2.79554 0.331604 
13 2 2.25449 99.1328 1.87331 2.12826 
46 4 2.78173 97.7379 0.606774 -1.06372 
47 3 2.98578 96.8007 0.633476 0.386697 
50 4 1.53911 98.3814 3.47921 -0.89015 
51 3 0.738448 98.3468 3.95124 0.410646 
2 4 97.571 99.8383 0.716934 -0.752972 
7 1 97.1222 99.511 2.24866 1.17294 
19 4 96.3912 97.989 2.30387 -0.685339 
21 4 98.5178 99.5445 3.16802 -0.643565 
27 3 96.055 97.4832 0.505351 0.413842 
33 3 96.0058 97.7868 3.16083 0.354789 
6 2 0.654342 0.688018 99.143 2.19441 
14 4 1.69898 2.19691 98.8253 -1.13075 
15 2 3.44596 2.79427 98.8761 2.18603 
40 4 4.34148 1.35557 99.7804 -0.951631 
42 4 4.2275 3.07277 97.1637 -0.890609 
43 3 4.92658 3.53672 96.7669 0.382604 
44 4 3.59188 4.37008 99.9313 -0.895423 
16 4 94.0051 1.65366 98.194 -0.710827 
1 1 97.2611 0.490259 99.256 1.31806 
3 4 96.3812 1.8598 99.4079 -0.706438 
5 4 98.7523 0.85911 98.6896 -0.845166 
8 1 94.7903 2.05889 99.5735 1.21845 
30 3 93.7373 2.4229 97.683 0.357753 
10 4 1.61796 99.1932 98.4564 -1.07411 
11 2 3.0062 97.8536 98.3877 2.18966 
34 4 3.08579 97.5462 96.4506 -0.832168 
35 3 3.6259 97.7433 95.7238 0.386274 
36 4 4.62343 98.9213 98.6547 -0.858105 
37 3 4.88336 99.7333 99.0739 0.428061 
38 4 3.05178 95.936 98.8243 -0.861851 
39 3 3.14087 95.1156 98.399 0.382099 
25 3 93.8082 99.8211 98.4587 0.404426 
4 4 96.577 99.3904 98.2669 -0.706016 
9 1 95.4194 98.3057 98.5105 1.24681 
22 4 95.1205 97.5625 97.0812 -0.624303 
23 4 94.0452 99.0389 99.0072 -0.713435 
24 4 95.9209 97.191 99.5942 -0.655732 
26 3 95.8723 97.1125 96.7074 0.364336 
