ITEM: TIMESTEP
0
ITEM: NUMBER OF ATOMS
51
ITEM: BOX BOUNDS pp pp pp
0.0000000000000000e+00 1.0000000000000000e+02
0.0000000000000000e+00 1.0000000000000000e+02
0.0000000000000000e+00 1.0000000000000000e+02
ITEM: ATOMS id type x y z q 
12 4 1.78961 0.32906 0.01788 -1.0135 
48 4 5.01474 0.56162 0.20561 -0.882 
49 3 5.66823 0.83989 0.85654 0.353354 
17 4 94.5531 3.68028 0.05984 -0.635799 
18 4 94.2328 1.08545 0.81639 -0.701381 
20 4 95.9601 0.60192 2.98173 -0.656161 
28 3 95.2189 0.84544 2.39047 0.400678 
29 3 93.956 0.21773 0.45311 0.389093 
31 3 95.3715 4.12226 0.31086 0.351823 
32 3 99.1638 0.10482 2.53314 0.333673 
13 2 3.45423 99.3075 0.28912 1.96853 
50 4 3.28886 98.4656 2.02994 -0.83151 
51 3 2.50218 98.5065 2.60325 0.352081 
2 4 97.3559 99.9372 0.73154 -0.727852 
7 1 97.0482 99.5993 2.29443 1.21638 
19 4 96.494 98.027 2.26095 -0.689801 
21 4 98.4873 99.6881 3.10045 -0.610731 
27 3 96.0706 97.3974 0.54609 0.416446 
33 3 95.9436 97.7437 2.99954 0.344968 
35 3 2.30103 98.1496 93.6959 0.36704 
6 2 0.70784 0.70673 98.3495 2.00316 
14 4 1.52874 2.32059 97.5739 -1.00883 
15 2 3.32019 3.07453 97.1637 2.0234 
37 3 4.55867 0.15232 96.5957 0.411795 
40 4 4.60549 1.6511 97.6906 -0.901599 
41 3 4.96681 1.40037 98.5668 0.394536 
42 4 3.49482 3.40367 95.2442 -0.839664 
43 3 3.50215 4.06754 94.5507 0.370216 
44 4 3.57945 4.67943 98.2375 -0.863363 
45 3 3.28857 5.35175 98.8565 0.371319 
16 4 93.6974 1.76732 98.3428 -0.679562 
1 1 97.2364 0.50373 99.1976 1.32717 
3 4 96.2865 1.8573 99.2101 -0.685568 
5 4 98.733 0.87374 98.691 -0.831019 
8 1 94.7067 2.11319 99.6091 1.19773 
30 3 93.7592 2.34318 97.5726 0.345455 
10 4 1.17047 99.1985 97.2371 -1.00829 
11 2 2.69954 98.1588 96.3862 2.0414 
34 4 2.07229 97.7888 94.5581 -0.815671 
36 4 4.17213 99.3982 96.1065 -0.852888 
38 4 3.092 96.2593 96.9893 -0.81584 
39 3 2.99029 95.4792 96.433 0.351953 
46 4 3.53418 98.0238 98.7569 -0.971495 
47 3 3.60461 97.0577 98.6201 0.396075 
25 3 93.6111 99.6328 98.3972 0.385664 
4 4 96.5302 99.3435 98.2809 -0.695829 
9 1 95.3481 98.2028 98.5344 1.21862 
22 4 95.0261 97.4787 97.0997 -0.627249 
23 4 93.9592 98.9795 99.0264 -0.695427 
24 4 95.7801 97.113 99.6598 -0.651103 
26 3 95.7877 97.1319 96.6225 0.359593 
ITEM: TIMESTEP
70
ITEM: NUMBER OF ATOMS
51
ITEM: BOX BOUNDS pp pp pp
0.0000000000000000e+00 1.0000000000000000e+02
0.0000000000000000e+00 1.0000000000000000e+02
0.0000000000000000e+00 1.0000000000000000e+02
ITEM: ATOMS id type x y z q 
12 4 1.7677 0.30534 -0.190401 -1.10011 
48 4 4.83761 0.493673 0.134704 -0.932756 
49 3 5.55488 0.758707 0.673501 0.368254 
17 4 94.512 3.62355 -0.0242888 -0.646062 
18 4 94.2467 1.0666 0.802143 -0.718534 
20 4 95.9888 0.546827 2.88786 -0.663303 
28 3 95.3309 0.897697 2.26271 0.405167 
29 3 94.016 0.166848 0.475004 0.384447 
31 3 95.3082 4.05383 0.277858 0.353192 
32 3 99.1499 0.0917666 2.65249 0.34127 
13 2 3.31833 99.3083 0.193024 2.12102 
50 4 3.19822 98.4899 1.91893 -0.890019 
51 3 2.61316 98.4247 2.63719 0.384189 
2 4 97.4857 99.9643 0.735887 -0.748994 
7 1 97.0849 99.5267 2.23044 1.23747 
19 4 96.4394 98.0157 2.2128 -0.713561 
21 4 98.4812 99.5659 3.08515 -0.628389 
27 3 96.0593 97.522 0.566681 0.419351 
33 3 95.9652 97.7641 3.00981 0.354719 
35 3 2.30909 98.15 93.8834 0.388118 
6 2 0.733341 0.807467 98.2974 2.13849 
14 4 1.56541 2.3633 97.6782 -1.12704 
15 2 3.20086 3.06797 97.1753 2.18631 
37 3 4.60329 0.149598 96.6413 0.42788 
40 4 4.41704 1.67732 97.6832 -0.953974 
41 3 4.90707 1.39267 98.4535 0.40923 
42 4 3.3169 3.40015 95.3051 -0.88751 
43 3 3.55303 4.07547 94.7136 0.381366 
44 4 3.58453 4.65161 98.1545 -0.899614 
45 3 3.1994 5.20898 98.7893 0.373788 
16 4 93.8573 1.65891 98.259 -0.711934 
1 1 97.2145 0.502278 99.2224 1.32752 
3 4 96.3032 1.85701 99.2727 -0.708022 
5 4 98.695 0.873778 98.6092 -0.816426 
8 1 94.7336 2.04792 99.5833 1.21924 
30 3 93.7472 2.37928 97.6305 0.354976 
10 4 1.37034 99.3503 97.2378 -1.06426 
11 2 2.73113 98.1486 96.5905 2.18993 
34 4 2.12269 97.8597 94.7446 -0.829798 
36 4 4.20443 99.3838 96.2485 -0.860107 
38 4 3.04663 96.2407 96.9205 -0.86959 
39 3 3.00975 95.4301 96.4696 0.381874 
46 4 3.40332 98.0136 98.7294 -1.06302 
47 3 3.62545 97.0859 98.6203 0.380598 
25 3 93.758 99.819 98.4759 0.400942 
4 4 96.5469 99.3461 98.2881 -0.721092 
9 1 95.3728 98.2896 98.5562 1.24611 
22 4 95.0632 97.5231 97.1421 -0.623515 
23 4 93.9981 99.035 99.0346 -0.710864 
24 4 95.8396 97.1911 99.6677 -0.649964 
26 3 95.8335 97.1568 96.7177 0.363004 
