ITEM: TIMESTEP
0
ITEM: NUMBER OF ATOMS
51
ITEM: BOX BOUNDS pp pp pp
0.0000000000000000e+00 1.0000000000000000e+02
0.0000000000000000e+00 1.0000000000000000e+02
0.0000000000000000e+00 1.0000000000000000e+02
ITEM: ATOMS id type x y z q 
12 4 1.14428 0.25374 0.97165 -1.02591 
41 3 4.67816 1.11465 0.6275 0.393934 
45 3 3.22762 5.14626 0.23275 0.371283 
48 4 4.13469 0.35002 2.21223 -0.882781 
49 3 4.55169 0.6281 3.03502 0.353739 
17 4 94.5531 3.68028 0.05984 -0.63635 
18 4 94.2328 1.08545 0.81639 -0.700142 
20 4 95.9601 0.60192 2.98173 -0.652269 
28 3 95.2189 0.84544 2.39047 0.402424 
29 3 93.956 0.21773 0.45311 0.389902 
31 3 95.3715 4.12226 0.31086 0.353111 
32 3 99.1638 0.10482 2.53314 0.332494 
13 2 2.56484 99.1721 1.80845 1.97135 
46 4 3.07205 97.8178 0.42629 -0.972041 
47 3 3.1282 96.8443 0.34776 0.397006 
50 4 1.78654 98.4185 3.41872 -0.83039 
51 3 0.85848 98.5206 3.69713 0.375969 
2 4 97.3559 99.9372 0.73154 -0.742584 
7 1 97.0482 99.5993 2.29443 1.21796 
19 4 96.494 98.027 2.26095 -0.692351 
21 4 98.4873 99.6881 3.10045 -0.634307 
27 3 96.0706 97.3974 0.54609 0.415968 
33 3 95.9436 97.7437 2.99954 0.348042 
6 2 0.69694 0.60314 99.0289 2.00155 
14 4 1.81875 2.14169 98.5246 -1.00868 
15 2 3.68534 2.79526 98.7111 2.02167 
40 4 4.64111 1.34117 99.6743 -0.901659 
42 4 4.50191 3.02858 96.9498 -0.838893 
43 3 4.77564 3.65922 96.2796 0.371086 
44 4 3.66737 4.43413 99.7645 -0.863068 
16 4 93.6974 1.76732 98.3428 -0.680124 
1 1 97.2364 0.50373 99.1976 1.31429 
3 4 96.2865 1.8573 99.2101 -0.682403 
5 4 98.733 0.87374 98.691 -0.819304 
8 1 94.7067 2.11319 99.6091 1.2002 
30 3 93.7592 2.34318 97.5726 0.34558 
10 4 1.4134 99.0267 98.1759 -1.00648 
11 2 3.07534 97.882 97.9101 2.04079 
34 4 3.06609 97.4576 95.9887 -0.814101 
35 3 3.58671 97.7682 95.2414 0.367549 
36 4 4.62621 99.0402 98.1001 -0.853434 
37 3 4.87227 99.7977 98.6685 0.411608 
38 4 3.13735 95.9962 98.6624 -0.814902 
39 3 3.18031 95.197 98.1261 0.35283 
25 3 93.6111 99.6328 98.3972 0.385599 
4 4 96.5302 99.3435 98.2809 -0.689198 
9 1 95.3481 98.2028 98.5344 1.21874 
22 4 95.0261 97.4787 97.0997 -0.628036 
23 4 93.9592 98.9795 99.0264 -0.694348 
24 4 95.7801 97.113 99.6598 -0.650259 
26 3 95.7877 97.1319 96.6225 0.359359 
ITEM: TIMESTEP
169
ITEM: NUMBER OF ATOMS
51
ITEM: BOX BOUNDS pp pp pp
0.0000000000000000e+00 1.0000000000000000e+02
0.0000000000000000e+00 1.0000000000000000e+02
0.0000000000000000e+00 1.0000000000000000e+02
ITEM: ATOMS id type x y z q 
12 4 1.16489 0.209146 0.83319 -1.09658 
41 3 4.53915 1.10488 0.373777 0.405551 
45 3 3.19155 5.10634 0.176757 0.376819 
48 4 3.96728 0.210045 1.96507 -0.938851 
49 3 4.55615 0.475882 2.64018 0.365978 
17 4 94.4304 3.61257 0.00532146 -0.650274 
18 4 94.1664 1.01965 0.797229 -0.705742 
20 4 96.115 0.584446 2.72446 -0.657131 
28 3 95.5222 0.907979 2.02509 0.399371 
29 3 94.0596 0.110001 0.436751 0.371506 
31 3 95.2157 4.07161 0.292697 0.35768 
32 3 99.3492 -0.198065 2.45222 0.337472 
13 2 2.40601 99.1068 1.72993 2.11605 
46 4 2.86035 97.7089 0.439003 -1.06506 
47 3 3.01718 96.7658 0.446491 0.376509 
50 4 1.55242 98.4635 3.31433 -0.893481 
51 3 0.718589 98.495 3.72725 0.417477 
2 4 97.5615 99.7299 0.652237 -0.760777 
7 1 97.2099 99.4905 2.20181 1.22821 
19 4 96.5258 98.0025 2.30721 -0.698113 
21 4 98.622 99.5707 3.02934 -0.648826 
27 3 96.1276 97.6719 0.5866 0.413663 
33 3 95.8633 97.9319 2.9973 0.357308 
6 2 0.869264 0.740769 99.0323 2.07446 
14 4 1.82186 2.30127 98.6684 -1.12424 
15 2 3.55938 2.94064 98.639 2.18134 
40 4 4.43975 1.46982 99.4996 -0.951709 
42 4 4.24746 3.19414 96.8831 -0.890555 
43 3 4.90104 3.67929 96.4363 0.382653 
44 4 3.71767 4.52382 99.6806 -0.897394 
16 4 93.9631 1.67492 98.2352 -0.712782 
1 1 97.1697 0.457059 99.2494 1.30241 
3 4 96.3115 1.82503 99.5235 -0.710397 
5 4 98.6284 0.835158 98.6415 -0.728175 
8 1 94.7175 2.04131 99.6398 1.20639 
30 3 93.6179 2.44882 97.7835 0.358853 
10 4 1.73203 99.2017 98.304 -1.06397 
11 2 3.08087 97.8229 98.2092 2.18759 
34 4 3.09569 97.5395 96.2643 -0.827997 
35 3 3.54513 97.8335 95.5085 0.387474 
36 4 4.65891 98.952 98.4363 -0.857949 
37 3 4.88219 99.7952 98.8031 0.427688 
38 4 3.13 95.8954 98.5796 -0.863828 
39 3 3.17243 95.091 98.1197 0.385883 
25 3 93.7749 99.8442 98.512 0.400008 
4 4 96.4085 99.3983 98.2706 -0.716365 
9 1 95.3075 98.2666 98.5703 1.23964 
22 4 95.0963 97.4131 97.1873 -0.615389 
23 4 93.904 98.9926 98.9845 -0.699757 
24 4 95.8015 97.2665 99.7601 -0.645576 
26 3 95.912 97.2293 96.73 0.362926 
