ITEM: TIMESTEP
0
ITEM: NUMBER OF ATOMS
51
ITEM: BOX BOUNDS pp pp pp
0.0000000000000000e+00 1.0000000000000000e+02
0.0000000000000000e+00 1.0000000000000000e+02
0.0000000000000000e+00 1.0000000000000000e+02
ITEM: ATOMS id type x y z q 
12 4 1.14428 0.25374 0.97165 -1.02591 
41 3 4.67816 1.11465 0.6275 0.393934 
45 3 3.22762 5.14626 0.23275 0.371283 
48 4 4.13469 0.35002 2.21223 -0.882781 
49 3 4.55169 0.6281 3.03502 0.353739 
17 4 94.5531 3.68028 0.05984 -0.63635 
18 4 94.2328 1.08545 0.81639 -0.700142 
20 4 95.9601 0.60192 2.98173 -0.652269 
28 3 95.2189 0.84544 2.39047 0.402424 
29 3 93.956 0.21773 0.45311 0.389902 
31 3 95.3715 4.12226 0.31086 0.353111 
32 3 99.1638 0.10482 2.53314 0.332494 
13 2 2.56484 99.1721 1.80845 1.97135 
46 4 3.07205 97.8178 0.42629 -0.972041 
47 3 3.1282 96.8443 0.34776 0.397006 
50 4 1.78654 98.4185 3.41872 -0.83039 
51 3 0.85848 98.5206 3.69713 0.375969 
2 4 97.3559 99.9372 0.73154 -0.742584 
7 1 97.0482 99.5993 2.29443 1.21796 
19 4 96.494 98.027 2.26095 -0.692351 
21 4 98.4873 99.6881 3.10045 -0.634307 
27 3 96.0706 97.3974 0.54609 0.415968 
33 3 95.9436 97.7437 2.99954 0.348042 
6 2 0.69694 0.60314 99.0289 2.00155 
14 4 1.81875 2.14169 98.5246 -1.00868 
15 2 3.68534 2.79526 98.7111 2.02167 
40 4 4.64111 1.34117 99.6743 -0.901659 
42 4 4.50191 3.02858 96.9498 -0.838893 
43 3 4.77564 3.65922 96.2796 0.371086 
44 4 3.66737 4.43413 99.7645 -0.863068 
16 4 93.6974 1.76732 98.3428 -0.680124 
1 1 97.2364 0.50373 99.1976 1.31429 
3 4 96.2865 1.8573 99.2101 -0.682403 
5 4 98.733 0.87374 98.691 -0.819304 
8 1 94.7067 2.11319 99.6091 1.2002 
30 3 93.7592 2.34318 97.5726 0.34558 
10 4 1.4134 99.0267 98.1759 -1.00648 
11 2 3.07534 97.882 97.9101 2.04079 
34 4 3.06609 97.4576 95.9887 -0.814101 
35 3 3.58671 97.7682 95.2414 0.367549 
36 4 4.62621 99.0402 98.1001 -0.853434 
37 3 4.87227 99.7977 98.6685 0.411608 
38 4 3.13735 95.9962 98.6624 -0.814902 
39 3 3.18031 95.197 98.1261 0.35283 
25 3 93.6111 99.6328 98.3972 0.385599 
4 4 96.5302 99.3435 98.2809 -0.689198 
9 1 95.3481 98.2028 98.5344 1.21874 
22 4 95.0261 97.4787 97.0997 -0.628036 
23 4 93.9592 98.9795 99.0264 -0.694348 
24 4 95.7801 97.113 99.6598 -0.650259 
26 3 95.7877 97.1319 96.6225 0.359359 
ITEM: TIMESTEP
14
ITEM: NUMBER OF ATOMS
51
ITEM: BOX BOUNDS pp pp pp
0.0000000000000000e+00 1.0000000000000000e+02
0.0000000000000000e+00 1.0000000000000000e+02
0.0000000000000000e+00 1.0000000000000000e+02
ITEM: ATOMS id type x y z q 
12 4 1.2407 0.19148 0.830865 -1.11184 
41 3 4.68199 1.1337 0.549065 0.406668 
45 3 3.19339 5.01624 0.149964 0.368328 
48 4 4.06648 0.305592 2.2044 -0.92536 
49 3 4.51733 0.598437 2.97865 0.368137 
17 4 94.5629 3.64376 0.0467019 -0.648617 
18 4 94.2465 1.083 0.807114 -0.711637 
20 4 95.936 0.585027 2.96213 -0.651638 
28 3 95.2335 0.861362 2.35365 0.408403 
29 3 93.9807 0.222241 0.420957 0.387186 
31 3 95.3608 4.09189 0.300047 0.355002 
32 3 99.1939 0.0916443 2.53508 0.332398 
13 2 2.55554 99.1972 1.71564 2.10952 
46 4 3.00762 97.868 0.347563 -1.04183 
47 3 3.13995 96.9167 0.318699 0.380327 
50 4 1.72579 98.4884 3.31009 -0.877741 
51 3 0.900839 98.4846 3.74337 0.406615 
2 4 97.3858 99.9566 0.753261 -0.743413 
7 1 97.0566 99.5688 2.29039 1.21623 
19 4 96.4945 98.0147 2.2833 -0.694334 
21 4 98.507 99.6931 3.08155 -0.637453 
27 3 96.0617 97.4263 0.49811 0.410892 
33 3 95.9397 97.769 3.0319 0.348164 
6 2 0.715331 0.614511 99.0468 2.16403 
14 4 1.90076 2.03375 98.6284 -1.11776 
15 2 3.60429 2.80555 98.7079 2.16707 
40 4 4.52583 1.41868 99.6571 -0.929631 
42 4 4.4539 2.99549 97.0043 -0.876577 
43 3 4.72683 3.6434 96.3954 0.377725 
44 4 3.73428 4.39851 99.7322 -0.90468 
16 4 93.748 1.74323 98.3383 -0.69862 
1 1 97.2199 0.489385 99.2027 1.29008 
3 4 96.279 1.84609 99.2102 -0.69734 
5 4 98.7927 0.86569 98.6904 -0.844825 
8 1 94.7258 2.08713 99.6065 1.2302 
30 3 93.7737 2.35155 97.6082 0.351222 
10 4 1.5167 99.0893 98.2584 -1.07765 
11 2 3.00967 97.9143 98.0381 2.19586 
34 4 3.08437 97.5125 96.1034 -0.827898 
35 3 3.54702 97.7549 95.3407 0.390646 
36 4 4.55711 99.0567 98.1428 -0.876231 
37 3 4.86605 99.773 98.6474 0.428195 
38 4 3.12713 96.0362 98.5679 -0.872264 
39 3 3.17974 95.1985 98.1668 0.381788 
25 3 93.6496 99.663 98.4333 0.387592 
4 4 96.5268 99.3258 98.3002 -0.720101 
9 1 95.3599 98.2618 98.5396 1.25363 
22 4 95.0401 97.5024 97.1214 -0.62983 
23 4 93.9754 98.971 99.0271 -0.710644 
24 4 95.7932 97.1216 99.6294 -0.649294 
26 3 95.7865 97.1444 96.6489 0.361303 
