ITEM: TIMESTEP
0
ITEM: NUMBER OF ATOMS
51
ITEM: BOX BOUNDS pp pp pp
0.0000000000000000e+00 1.0000000000000000e+02
0.0000000000000000e+00 1.0000000000000000e+02
0.0000000000000000e+00 1.0000000000000000e+02
ITEM: ATOMS id type x y z q 
12 4 0.86698 0.24462 1.23076 -1.03498 
40 4 4.50414 1.25758 0.3151 -0.901804 
41 3 4.43193 1.04309 1.26907 0.393746 
44 4 3.58125 4.36695 0.26222 -0.863094 
45 3 3.10525 5.09228 0.67097 0.371165 
48 4 3.70373 0.30844 2.79269 -0.882617 
49 3 4.03239 0.59051 3.65327 0.354167 
17 4 94.5531 3.68028 0.05984 -0.636348 
18 4 94.2328 1.08545 0.81639 -0.699595 
20 4 95.9601 0.60192 2.98173 -0.651473 
28 3 95.2189 0.84544 2.39047 0.40323 
29 3 93.956 0.21773 0.45311 0.390391 
31 3 95.3715 4.12226 0.31086 0.35339 
32 3 99.1638 0.10482 2.53314 0.344668 
13 2 2.16734 99.1511 2.23145 1.97312 
46 4 2.79971 97.7705 0.92916 -0.972044 
47 3 2.84693 96.7952 0.86834 0.397308 
50 4 1.20316 98.4317 3.7544 -0.831809 
51 3 0.25203 98.5526 3.9275 0.396593 
2 4 97.3559 99.9372 0.73154 -0.747933 
7 1 97.0482 99.5993 2.29443 1.21913 
19 4 96.494 98.027 2.26095 -0.694738 
21 4 98.4873 99.6881 3.10045 -0.658517 
27 3 96.0706 97.3974 0.54609 0.415729 
33 3 95.9436 97.7437 2.99954 0.348615 
6 2 0.64266 0.57559 99.2467 2.00186 
14 4 1.84023 2.08882 98.8519 -1.00892 
15 2 3.68618 2.71423 99.2358 2.02113 
42 4 4.69582 2.91089 97.573 -0.838877 
43 3 5.05284 3.52807 96.93 0.371257 
16 4 93.6974 1.76732 98.3428 -0.680345 
1 1 97.2364 0.50373 99.1976 1.30715 
3 4 96.2865 1.8573 99.2101 -0.681578 
5 4 98.733 0.87374 98.691 -0.814156 
8 1 94.7067 2.11319 99.6091 1.2015 
30 3 93.7592 2.34318 97.5726 0.345403 
10 4 1.42074 98.9765 98.4959 -1.00598 
11 2 3.08134 97.8014 98.4281 2.04072 
34 4 3.27633 97.3519 96.5224 -0.813882 
35 3 3.88152 97.644 95.8337 0.367493 
36 4 4.62207 98.9366 98.7751 -0.853778 
37 3 4.81737 99.6974 99.3585 0.411426 
38 4 3.02671 95.9249 99.204 -0.814628 
39 3 3.11436 95.1181 98.6848 0.353107 
25 3 93.6111 99.6328 98.3972 0.385508 
4 4 96.5302 99.3435 98.2809 -0.687025 
9 1 95.3481 98.2028 98.5344 1.21925 
22 4 95.0261 97.4787 97.0997 -0.628217 
23 4 93.9592 98.9795 99.0264 -0.693828 
24 4 95.7801 97.113 99.6598 -0.650046 
26 3 95.7877 97.1319 96.6225 0.359164 
ITEM: TIMESTEP
39
ITEM: NUMBER OF ATOMS
51
ITEM: BOX BOUNDS pp pp pp
0.0000000000000000e+00 1.0000000000000000e+02
0.0000000000000000e+00 1.0000000000000000e+02
0.0000000000000000e+00 1.0000000000000000e+02
ITEM: ATOMS id type x y z q 
12 4 0.925163 0.219937 1.08053 -1.12362 
40 4 4.32385 1.27292 0.23811 -0.956355 
41 3 4.44319 1.03238 1.1565 0.409339 
44 4 3.59396 4.29722 0.17042 -0.896178 
45 3 3.03198 4.92238 0.563019 0.375113 
48 4 3.59594 0.246622 2.67096 -0.93293 
49 3 4.00789 0.51941 3.46506 0.369669 
17 4 94.5248 3.61095 -0.0491912 -0.645306 
18 4 94.2528 1.05547 0.80198 -0.717215 
20 4 95.9451 0.564331 2.92788 -0.645048 
28 3 95.3119 0.917669 2.28368 0.405971 
29 3 94.0255 0.149526 0.487538 0.385467 
31 3 95.3151 4.03078 0.280199 0.355081 
32 3 99.1811 0.0997765 2.59949 0.338201 
13 2 2.11343 99.1626 2.0864 2.1257 
46 4 2.70568 97.7714 0.847401 -1.06374 
47 3 2.87875 96.8275 0.87894 0.386106 
50 4 1.21393 98.4326 3.60966 -0.883792 
51 3 0.3761 98.4677 4.01639 0.422562 
2 4 97.4883 99.9369 0.73686 -0.763565 
7 1 97.0805 99.5456 2.26466 1.1779 
19 4 96.4596 97.9759 2.29287 -0.685545 
21 4 98.5083 99.6596 3.12264 -0.648484 
27 3 96.0503 97.4808 0.507825 0.410754 
33 3 95.9564 97.7948 3.09227 0.353697 
6 2 0.612926 0.651088 99.2649 2.18909 
14 4 1.76757 2.09621 99.0034 -1.13155 
15 2 3.51474 2.66497 99.199 2.18861 
42 4 4.43807 2.90706 97.5544 -0.886361 
43 3 5.00309 3.51452 97.1391 0.385962 
16 4 93.8949 1.66236 98.2418 -0.712042 
1 1 97.25 0.490409 99.2284 1.31189 
3 4 96.3414 1.85082 99.3009 -0.701639 
5 4 98.7545 0.855191 98.6751 -0.848501 
8 1 94.7601 2.03438 99.5848 1.22001 
30 3 93.7365 2.37022 97.6072 0.35886 
10 4 1.55895 99.1249 98.6262 -1.07377 
11 2 2.98132 97.8262 98.6195 2.18864 
34 4 3.213 97.4647 96.7018 -0.829091 
35 3 3.80542 97.6536 96.013 0.389922 
36 4 4.55963 98.9478 98.8871 -0.859704 
37 3 4.82857 99.6877 99.4163 0.42673 
38 4 3.00442 95.9274 99.118 -0.866891 
39 3 3.10435 95.0944 98.7208 0.383049 
25 3 93.8087 99.8427 98.4873 0.402326 
4 4 96.5748 99.3511 98.2774 -0.711911 
9 1 95.3853 98.3048 98.5248 1.24774 
22 4 95.0702 97.5736 97.095 -0.62349 
23 4 94.0192 99.0441 99.0255 -0.711566 
24 4 95.8424 97.1812 99.6123 -0.654014 
26 3 95.8309 97.1482 96.7112 0.363913 
