ITEM: TIMESTEP
0
ITEM: NUMBER OF ATOMS
51
ITEM: BOX BOUNDS pp pp pp
0.0000000000000000e+00 1.0000000000000000e+02
0.0000000000000000e+00 1.0000000000000000e+02
0.0000000000000000e+00 1.0000000000000000e+02
ITEM: ATOMS id type x y z q 
12 4 0.75329 0.24323 1.32177 -1.04007 
40 4 4.4326 1.22831 0.55644 -0.901859 
41 3 4.31864 1.01892 1.50747 0.393712 
44 4 3.53343 4.34326 0.45028 -0.863128 
45 3 3.04537 5.07362 0.83517 0.371085 
48 4 3.52171 0.29637 3.0022 -0.882526 
49 3 3.8155 0.58049 3.87464 0.354369 
17 4 94.5531 3.68028 0.05984 -0.636319 
18 4 94.2328 1.08545 0.81639 -0.699364 
20 4 95.9601 0.60192 2.98173 -0.651432 
28 3 95.2189 0.84544 2.39047 0.403592 
29 3 93.956 0.21773 0.45311 0.390618 
31 3 95.3715 4.12226 0.31086 0.353451 
32 3 99.1638 0.10482 2.53314 0.352981 
13 2 2.00282 99.1462 2.38166 1.97396 
46 4 2.6806 97.7553 1.11366 -0.97204 
47 3 2.72389 96.7795 1.05936 0.397395 
50 4 0.97026 98.4404 3.86565 -0.832439 
51 3 0.01348 98.5683 3.99773 0.40748 
2 4 97.3559 99.9372 0.73154 -0.749996 
7 1 97.0482 99.5993 2.29443 1.21969 
19 4 96.494 98.027 2.26095 -0.696065 
21 4 98.4873 99.6881 3.10045 -0.671933 
27 3 96.0706 97.3974 0.54609 0.415633 
33 3 95.9436 97.7437 2.99954 0.34858 
6 2 0.61539 0.56601 99.3285 2.0023 
14 4 1.83862 2.06957 98.9779 -1.00907 
15 2 3.67076 2.68494 99.4368 2.02094 
42 4 4.7512 2.86704 97.8174 -0.838921 
43 3 5.13921 3.47878 97.1873 0.371267 
16 4 93.6974 1.76732 98.3428 -0.680422 
1 1 97.2364 0.50373 99.1976 1.30399 
3 4 96.2865 1.8573 99.2101 -0.681287 
5 4 98.733 0.87374 98.691 -0.812054 
8 1 94.7067 2.11319 99.6091 1.20205 
30 3 93.7592 2.34318 97.5726 0.345282 
10 4 1.41394 98.9583 98.6186 -1.00581 
11 2 3.06809 97.7723 98.6267 2.04074 
34 4 3.34063 97.3123 96.733 -0.813848 
35 3 3.97636 97.5971 96.0692 0.367411 
36 4 4.60024 98.8992 99.0334 -0.853934 
37 3 4.7757 99.6615 99.6212 0.411341 
38 4 2.96821 95.9 99.4082 -0.814531 
39 3 3.07241 95.0901 98.8968 0.353206 
25 3 93.6111 99.6328 98.3972 0.385456 
4 4 96.5302 99.3435 98.2809 -0.686179 
9 1 95.3481 98.2028 98.5344 1.21949 
22 4 95.0261 97.4787 97.0997 -0.628291 
23 4 93.9592 98.9795 99.0264 -0.693589 
24 4 95.7801 97.113 99.6598 -0.649975 
26 3 95.7877 97.1319 96.6225 0.359061 
ITEM: TIMESTEP
351
ITEM: NUMBER OF ATOMS
51
ITEM: BOX BOUNDS pp pp pp
0.0000000000000000e+00 1.0000000000000000e+02
0.0000000000000000e+00 1.0000000000000000e+02
0.0000000000000000e+00 1.0000000000000000e+02
ITEM: ATOMS id type x y z q 
12 4 0.859391 0.0975623 1.3192 -1.09607 
40 4 4.24738 1.43012 0.259347 -0.949759 
41 3 4.29617 1.03775 1.1263 0.411708 
44 4 3.26393 4.41716 0.466036 -0.892228 
45 3 2.7186 5.14807 0.63677 0.3797 
48 4 3.64589 0.0692158 2.60274 -0.929999 
49 3 4.29177 0.254008 3.25479 0.362717 
17 4 94.5366 3.54247 -0.00285176 -0.649223 
18 4 94.162 0.918355 0.594042 -0.70475 
20 4 96.0631 0.845571 2.64879 -0.650733 
28 3 95.4212 0.999052 1.95578 0.405306 
29 3 94.0373 0.0370503 0.152531 0.378004 
31 3 95.3021 3.96727 0.384691 0.358582 
32 3 99.2246 -0.208426 2.71468 0.339025 
13 2 2.02758 99.0152 2.37127 2.07797 
46 4 2.46327 97.5635 1.08458 -1.03911 
47 3 2.47282 96.6062 1.06548 0.376352 
50 4 0.998435 98.4933 3.90722 -0.890129 
51 3 0.128294 98.5938 4.22851 0.424816 
2 4 97.5471 99.5789 0.761667 -0.768833 
7 1 97.0611 99.5899 2.31026 1.18236 
19 4 96.2204 98.171 2.53877 -0.67864 
21 4 98.4494 99.6146 3.25937 -0.657082 
27 3 96.0535 97.7747 0.642986 0.414939 
33 3 95.9535 98.0206 3.44131 0.362799 
6 2 0.606999 0.598234 99.4921 2.22131 
14 4 1.63956 2.11964 99.2309 -1.13772 
15 2 3.32435 2.85643 99.379 2.19579 
42 4 4.21933 3.19682 97.733 -0.890709 
43 3 5.07686 3.20148 97.376 0.383061 
16 4 94.2053 1.71657 98.0715 -0.706784 
1 1 97.3262 0.383323 99.3594 1.3252 
3 4 96.4472 1.73958 99.5843 -0.714482 
5 4 98.8123 0.730777 98.8671 -0.886218 
8 1 94.8512 1.99414 99.557 1.20016 
30 3 93.6249 2.43201 97.7908 0.354939 
10 4 1.58204 99.0971 98.8418 -1.07234 
11 2 2.93182 97.7272 98.877 2.19363 
34 4 3.30053 97.5028 96.9628 -0.82969 
35 3 3.88594 97.813 96.3144 0.386316 
36 4 4.46815 98.8407 99.3358 -0.864173 
37 3 4.64409 99.7018 99.6856 0.423289 
38 4 2.76323 95.8035 99.2081 -0.867841 
39 3 2.80167 95.0021 98.7422 0.386458 
25 3 94.0043 99.8666 98.2313 0.39858 
4 4 96.5956 99.3558 98.3119 -0.703831 
9 1 95.4174 98.2145 98.5242 1.20948 
22 4 95.4774 97.3234 97.137 -0.609659 
23 4 93.9894 99.0079 98.6589 -0.700372 
24 4 95.7281 97.3085 99.8652 -0.628986 
26 3 96.1905 97.6116 96.5819 0.366864 
