ITEM: TIMESTEP
0
ITEM: NUMBER OF ATOMS
51
ITEM: BOX BOUNDS pp pp pp
0.0000000000000000e+00 1.0000000000000000e+02
0.0000000000000000e+00 1.0000000000000000e+02
0.0000000000000000e+00 1.0000000000000000e+02
ITEM: ATOMS id type x y z q 
12 4 1.02397 0.24869 1.09117 -1.02937 
41 3 4.57709 1.08119 0.91735 0.393832 
45 3 3.17906 5.12123 0.43009 0.371242 
48 4 3.95019 0.32966 2.47735 -0.882732 
49 3 4.32824 0.60927 3.31823 0.353909 
17 4 94.5531 3.68028 0.05984 -0.636363 
18 4 94.2328 1.08545 0.81639 -0.699905 
20 4 95.9601 0.60192 2.98173 -0.651822 
28 3 95.2189 0.84544 2.39047 0.402762 
29 3 93.956 0.21773 0.45311 0.390102 
31 3 95.3715 4.12226 0.31086 0.353254 
32 3 99.1638 0.10482 2.53314 0.336502 
13 2 2.3931 99.1612 2.0028 1.97209 
46 4 2.95736 97.7953 0.65457 -0.972052 
47 3 3.00977 96.821 0.58407 0.39715 
50 4 1.5305 98.4227 3.57665 -0.830892 
51 3 0.59066 98.5333 3.80837 0.383889 
2 4 97.3559 99.9372 0.73154 -0.744951 
7 1 97.0482 99.5993 2.29443 1.21841 
19 4 96.494 98.027 2.26095 -0.693254 
21 4 98.4873 99.6881 3.10045 -0.64342 
27 3 96.0706 97.3974 0.54609 0.415865 
33 3 95.9436 97.7437 2.99954 0.348384 
6 2 0.67573 0.59039 99.1269 2.00157 
14 4 1.83293 2.11762 98.6705 -1.00878 
15 2 3.69305 2.75827 98.9454 2.02143 
40 4 4.58885 1.30257 99.9623 -0.901721 
42 4 4.59729 2.97547 97.2254 -0.838866 
43 3 4.90862 3.60023 96.5661 0.371184 
44 4 3.63584 4.40318 99.9879 -0.86307 
16 4 93.6974 1.76732 98.3428 -0.680226 
1 1 97.2364 0.50373 99.1976 1.31129 
3 4 96.2865 1.8573 99.2101 -0.682022 
5 4 98.733 0.87374 98.691 -0.817067 
8 1 94.7067 2.11319 99.6091 1.20076 
30 3 93.7592 2.34318 97.5726 0.345525 
10 4 1.42115 99.0038 98.3187 -1.00625 
11 2 3.08527 97.8452 98.1413 2.04073 
34 4 3.16752 97.41 96.224 -0.813982 
35 3 3.72675 97.7124 95.5018 0.367549 
36 4 4.6338 98.9929 98.4015 -0.853583 
37 3 4.85738 99.7518 98.9773 0.411538 
38 4 3.09548 95.9633 98.9058 -0.814777 
39 3 3.15865 95.1608 98.3764 0.35296 
25 3 93.6111 99.6328 98.3972 0.385566 
4 4 96.5302 99.3435 98.2809 -0.688231 
9 1 95.3481 98.2028 98.5344 1.21894 
22 4 95.0261 97.4787 97.0997 -0.628116 
23 4 93.9592 98.9795 99.0264 -0.694132 
24 4 95.7801 97.113 99.6598 -0.650159 
26 3 95.7877 97.1319 96.6225 0.359284 
ITEM: TIMESTEP
403
ITEM: NUMBER OF ATOMS
51
ITEM: BOX BOUNDS pp pp pp
0.0000000000000000e+00 1.0000000000000000e+02
0.0000000000000000e+00 1.0000000000000000e+02
0.0000000000000000e+00 1.0000000000000000e+02
ITEM: ATOMS id type x y z q 
12 4 1.01295 0.174461 1.05127 -1.10566 
41 3 4.44807 1.1376 0.563618 0.409506 
45 3 2.85994 5.16472 0.283305 0.379165 
48 4 3.87245 0.129179 2.05112 -0.937067 
49 3 4.58794 0.279739 2.6368 0.36472 
17 4 94.5657 3.53785 0.0419143 -0.652267 
18 4 94.2929 0.937408 0.69496 -0.709856 
20 4 96.318 1.01993 2.59931 -0.628122 
28 3 95.5748 1.16429 1.99134 0.404139 
29 3 94.2346 0.0260133 0.326313 0.380721 
31 3 95.329 3.94853 0.440667 0.360691 
32 3 99.2902 -0.348241 2.66948 0.334017 
13 2 2.25883 99.0723 1.94133 2.10889 
46 4 2.61012 97.5739 0.721838 -1.06167 
47 3 2.65439 96.6241 0.780656 0.376455 
50 4 1.44281 98.5048 3.57628 -0.89408 
51 3 0.612841 98.5359 3.99644 0.409434 
2 4 97.6376 99.6504 0.655441 -0.759017 
7 1 97.1384 99.6237 2.20764 1.16646 
19 4 96.104 98.3098 2.39427 -0.681735 
21 4 98.5019 99.4005 3.14829 -0.656483 
27 3 96.0131 97.7202 0.581247 0.406928 
33 3 96.3283 97.7853 3.16664 0.361279 
6 2 0.68178 0.678585 99.2536 2.189 
14 4 1.66679 2.21601 98.9072 -1.13645 
15 2 3.36124 2.94341 98.865 2.19444 
40 4 4.34922 1.52942 99.7006 -0.946606 
42 4 4.09456 3.22986 97.1333 -0.891658 
43 3 4.91674 3.35139 96.7186 0.383462 
44 4 3.42657 4.52352 99.9225 -0.892227 
16 4 94.0839 1.69453 98.1658 -0.70959 
1 1 97.3029 0.389969 99.2399 1.3066 
3 4 96.4475 1.76887 99.4632 -0.706396 
5 4 98.7901 0.766747 98.6742 -0.832488 
8 1 94.8547 1.99401 99.5779 1.2089 
30 3 93.4717 2.39579 97.9231 0.356523 
10 4 1.62927 99.1656 98.5882 -1.07272 
11 2 2.97175 97.7814 98.5113 2.18772 
34 4 3.17894 97.6324 96.5595 -0.824467 
35 3 3.70704 97.9687 95.876 0.386137 
36 4 4.53215 98.9046 98.8741 -0.862344 
37 3 4.72344 99.7822 99.1725 0.423078 
38 4 2.90634 95.8327 98.7429 -0.857594 
39 3 2.95975 95.0613 98.2316 0.387065 
25 3 93.9434 99.8534 98.3677 0.396528 
4 4 96.5608 99.3471 98.2287 -0.718302 
9 1 95.4346 98.2295 98.4908 1.24347 
22 4 95.3087 97.3618 97.1065 -0.615509 
23 4 94.0264 98.9864 98.8196 -0.697714 
24 4 95.8514 97.268 99.7439 -0.640065 
26 3 96.0654 97.4733 96.5362 0.364765 
