ITEM: TIMESTEP
0
ITEM: NUMBER OF ATOMS
51
ITEM: BOX BOUNDS pp pp pp
0.0000000000000000e+00 1.0000000000000000e+02
0.0000000000000000e+00 1.0000000000000000e+02
0.0000000000000000e+00 1.0000000000000000e+02
ITEM: ATOMS id type x y z q 
12 4 1.5909 0.29336 0.39266 -1.0168 
48 4 4.77216 0.46992 0.9751 -0.882481 
49 3 5.34569 0.74593 1.69834 0.353414 
17 4 94.5531 3.68028 0.05984 -0.636067 
18 4 94.2328 1.08545 0.81639 -0.700999 
20 4 95.9601 0.60192 2.98173 -0.654776 
28 3 95.2189 0.84544 2.39047 0.40125 
29 3 93.956 0.21773 0.45311 0.389308 
31 3 95.3715 4.12226 0.31086 0.352298 
32 3 99.1638 0.10482 2.53314 0.330119 
13 2 3.18862 99.2458 0.88061 1.96907 
50 4 2.79282 98.4332 2.59804 -0.830693 
51 3 1.94234 98.4969 3.06903 0.35714 
2 4 97.3559 99.9372 0.73154 -0.732983 
7 1 97.0482 99.5993 2.29443 1.21681 
19 4 96.494 98.027 2.26095 -0.690288 
21 4 98.4873 99.6881 3.10045 -0.614525 
27 3 96.0706 97.3974 0.54609 0.416315 
33 3 95.9436 97.7437 2.99954 0.346079 
6 2 0.73117 0.66571 98.5986 2.00245 
14 4 1.67353 2.25259 97.9104 -1.00864 
15 2 3.51659 2.96757 97.7156 2.02275 
37 3 4.75727 0.01513 97.3419 0.411777 
40 4 4.69839 1.52899 98.4152 -0.901539 
41 3 4.94367 1.28484 99.3326 0.394395 
42 4 3.93342 3.26477 95.8285 -0.839321 
43 3 4.03956 3.91797 95.1329 0.370525 
44 4 3.67319 4.58334 98.7929 -0.86321 
45 3 3.32155 5.27001 99.3627 0.371326 
16 4 93.6974 1.76732 98.3428 -0.679704 
1 1 97.2364 0.50373 99.1976 1.32393 
3 4 96.2865 1.8573 99.2101 -0.684281 
5 4 98.733 0.87374 98.691 -0.827512 
8 1 94.7067 2.11319 99.6091 1.19831 
30 3 93.7592 2.34318 97.5726 0.345529 
10 4 1.29749 99.1328 97.571 -1.00758 
11 2 2.89891 98.0529 96.929 2.04119 
34 4 2.49495 97.6672 95.0422 -0.814986 
35 3 2.83553 98.0107 94.2105 0.367271 
36 4 4.41916 99.261 96.8181 -0.852997 
38 4 3.17597 96.1557 97.5999 -0.815503 
39 3 3.12821 95.3695 97.0452 0.352278 
46 4 3.43157 97.9382 99.3863 -0.971761 
47 3 3.4991 96.969 99.2714 0.396371 
25 3 93.6111 99.6328 98.3972 0.38565 
4 4 96.5302 99.3435 98.2809 -0.693358 
9 1 95.3481 98.2028 98.5344 1.21838 
22 4 95.0261 97.4787 97.0997 -0.627611 
23 4 93.9592 98.9795 99.0264 -0.695082 
24 4 95.7801 97.113 99.6598 -0.650779 
26 3 95.7877 97.1319 96.6225 0.359551 
ITEM: TIMESTEP
570
ITEM: NUMBER OF ATOMS
51
ITEM: BOX BOUNDS pp pp pp
0.0000000000000000e+00 1.0000000000000000e+02
0.0000000000000000e+00 1.0000000000000000e+02
0.0000000000000000e+00 1.0000000000000000e+02
ITEM: ATOMS id type x y z q 
12 4 1.38015 0.374919 0.0281438 -1.08485 
48 4 4.27708 0.305961 0.741949 -0.935873 
49 3 5.09149 0.399651 1.19317 0.365118 
17 4 94.5951 3.44084 0.401523 -0.649753 
18 4 94.3416 0.795357 0.857647 -0.720498 
20 4 96.5318 0.653036 2.57823 -0.664003 
28 3 95.8095 0.856514 1.96167 0.395284 
29 3 94.1394 99.9447 0.406586 0.370902 
31 3 95.4143 3.83983 0.68405 0.361247 
32 3 99.6786 99.809 2.0016 0.331152 
13 2 2.6684 99.2403 0.812529 2.11076 
50 4 2.03717 98.6642 2.52267 -0.894518 
51 3 1.25913 98.6874 3.03372 0.418309 
2 4 97.6849 99.5485 0.438573 -0.752782 
7 1 97.5269 99.482 2.0296 1.23696 
19 4 96.7773 98.052 2.30355 -0.683005 
21 4 99.0318 99.5736 2.66572 -0.64522 
27 3 96.1195 97.788 0.645167 0.410966 
33 3 96.0302 98.1284 2.90211 0.353476 
6 2 0.892019 0.883795 98.2602 2.05995 
14 4 1.69843 2.48628 97.7565 -1.12612 
15 2 3.40024 3.20068 97.5825 2.17714 
37 3 4.79079 0.0127341 97.8132 0.423926 
40 4 4.40374 1.75809 98.3557 -0.95013 
41 3 4.5814 1.38291 99.2136 0.406528 
42 4 3.9506 3.48533 95.7826 -0.889973 
43 3 4.6711 3.8202 95.3016 0.383122 
44 4 3.58516 4.78406 98.6221 -0.893696 
45 3 3.0744 5.36163 99.1398 0.377582 
16 4 93.8975 1.76762 98.4299 -0.708441 
1 1 97.1751 0.324417 99.1076 1.30907 
3 4 96.3743 1.70413 99.4811 -0.710715 
5 4 98.5807 0.69105 98.3876 -0.720241 
8 1 94.8065 1.93963 99.7815 1.20215 
30 3 93.1781 2.40678 98.3821 0.355346 
10 4 1.69967 99.3559 97.4498 -1.06084 
11 2 3.03999 97.9714 97.2931 2.18327 
34 4 3.14169 97.8117 95.3351 -0.824965 
35 3 3.63556 98.1412 94.6232 0.387877 
36 4 4.59931 99.1259 97.5447 -0.861422 
38 4 2.95251 96.0272 97.5484 -0.861601 
39 3 2.9519 95.2505 97.042 0.386017 
46 4 2.86693 97.7718 99.5284 -1.06246 
47 3 2.87525 96.8184 99.5501 0.37613 
25 3 93.7478 99.9208 98.4614 0.392707 
4 4 96.2835 99.294 98.2106 -0.730423 
9 1 95.1603 98.2193 98.6224 1.2395 
22 4 95.0443 97.2234 97.3282 -0.611333 
23 4 93.7588 99.0241 98.8605 -0.691948 
24 4 95.5212 97.3935 99.9815 -0.643307 
26 3 95.6859 97.4415 96.6559 0.363615 
