ITEM: TIMESTEP
0
ITEM: NUMBER OF ATOMS
51
ITEM: BOX BOUNDS pp pp pp
0.0000000000000000e+00 1.0000000000000000e+02
0.0000000000000000e+00 1.0000000000000000e+02
0.0000000000000000e+00 1.0000000000000000e+02
ITEM: ATOMS id type x y z q 
12 4 0.60804 0.24313 1.42717 -1.04821 
40 4 4.33022 1.19449 0.84953 -0.901916 
41 3 4.16508 0.99174 1.79446 0.39371 
44 4 3.4634 4.31575 0.67912 -0.86319 
45 3 2.96193 5.05225 1.03391 0.370959 
48 4 3.28535 0.28451 3.24956 -0.882435 
49 3 3.53554 0.57155 4.13455 0.354638 
17 4 94.5531 3.68028 0.05984 -0.636266 
18 4 94.2328 1.08545 0.81639 -0.699058 
20 4 95.9601 0.60192 2.98173 -0.651707 
28 3 95.2189 0.84544 2.39047 0.404085 
29 3 93.956 0.21773 0.45311 0.390925 
31 3 95.3715 4.12226 0.31086 0.353488 
32 3 99.1638 0.10482 2.53314 0.366878 
13 2 1.79152 99.1427 2.55699 1.97524 
46 4 2.52311 97.7388 1.33392 -0.97206 
47 3 2.56116 96.7624 1.28742 0.397466 
50 4 0.67719 98.454 3.98896 -0.832608 
2 4 97.3559 99.9372 0.73154 -0.752453 
7 1 97.0482 99.5993 2.29443 1.22029 
19 4 96.494 98.027 2.26095 -0.698109 
21 4 98.4873 99.6881 3.10045 -0.692095 
27 3 96.0706 97.3974 0.54609 0.415524 
33 3 95.9436 97.7437 2.99954 0.348214 
51 3 99.7159 98.5902 4.07018 0.423021 
6 2 0.57698 0.55499 99.4276 2.00322 
14 4 1.82912 2.04671 99.133 -1.0093 
15 2 3.63981 2.65033 99.6835 2.02071 
42 4 4.80473 2.81415 98.1217 -0.839019 
43 3 5.23009 3.419 97.5093 0.371226 
16 4 93.6974 1.76732 98.3428 -0.680511 
1 1 97.2364 0.50373 99.1976 1.29975 
3 4 96.2865 1.8573 99.2101 -0.680944 
5 4 98.733 0.87374 98.691 -0.809372 
8 1 94.7067 2.11319 99.6091 1.20276 
30 3 93.7592 2.34318 97.5726 0.345088 
10 4 1.39826 98.9368 98.7695 -1.00562 
11 2 3.03995 97.7378 98.8705 2.04082 
34 4 3.40714 97.2643 96.9962 -0.813847 
35 3 4.07895 97.5401 96.365 0.367254 
36 4 4.55799 98.855 99.3504 -0.854139 
37 3 4.70879 99.6195 99.9422 0.411225 
38 4 2.88408 95.8711 99.6562 -0.814419 
39 3 3.00817 95.0573 99.1555 0.353311 
25 3 93.6111 99.6328 98.3972 0.385382 
4 4 96.5302 99.3435 98.2809 -0.685124 
9 1 95.3481 98.2028 98.5344 1.21983 
22 4 95.0261 97.4787 97.0997 -0.628389 
23 4 93.9592 98.9795 99.0264 -0.693257 
24 4 95.7801 97.113 99.6598 -0.649891 
26 3 95.7877 97.1319 96.6225 0.358907 
ITEM: TIMESTEP
268
ITEM: NUMBER OF ATOMS
51
ITEM: BOX BOUNDS pp pp pp
0.0000000000000000e+00 1.0000000000000000e+02
0.0000000000000000e+00 1.0000000000000000e+02
0.0000000000000000e+00 1.0000000000000000e+02
ITEM: ATOMS id type x y z q 
12 4 0.768195 0.105359 1.45204 -1.09534 
40 4 4.1688 1.3728 0.537051 -0.948676 
41 3 4.18368 0.988801 1.40904 0.411112 
44 4 3.21596 4.36825 0.698775 -0.892453 
45 3 2.66634 5.10021 0.853449 0.37954 
48 4 3.47889 0.0418958 2.88629 -0.930822 
49 3 4.03116 0.28949 3.59764 0.363628 
17 4 94.5349 3.59143 -0.0916532 -0.650308 
18 4 94.0942 0.997679 0.577575 -0.709483 
20 4 95.8899 0.681897 2.68625 -0.645242 
28 3 95.3491 0.91416 1.91719 0.400912 
29 3 93.9557 0.116283 0.165119 0.374968 
31 3 95.2916 4.02985 0.289734 0.361002 
32 3 99.1791 -0.0840079 2.80413 0.344878 
13 2 1.8779 98.9944 2.54723 2.07223 
46 4 2.35748 97.5364 1.27325 -1.03698 
47 3 2.37617 96.5812 1.26315 0.37875 
50 4 0.723811 98.4694 3.99245 -0.88733 
2 4 97.5734 99.6201 0.818001 -0.77675 
7 1 97.0575 99.5548 2.35881 1.17989 
19 4 96.3791 98.0453 2.55428 -0.674616 
21 4 98.391 99.7621 3.33224 -0.6599 
27 3 96.11 97.7397 0.660404 0.408518 
33 3 95.7539 98.005 3.27893 0.359921 
51 3 99.8374 98.6034 4.25742 0.434504 
6 2 0.550957 0.585654 99.6193 2.21055 
14 4 1.61921 2.09363 99.3881 -1.13091 
15 2 3.30439 2.81018 99.611 2.19565 
42 4 4.28404 3.13664 98.0128 -0.891256 
43 3 5.15928 3.1482 97.7032 0.383941 
16 4 94.2567 1.71413 98.0454 -0.711883 
1 1 97.29 0.390771 99.4109 1.30219 
3 4 96.4238 1.75708 99.6669 -0.713467 
5 4 98.7837 0.78502 98.8902 -0.860466 
8 1 94.8392 2.02426 99.5412 1.21033 
30 3 93.6936 2.4223 97.7184 0.356422 
10 4 1.52695 99.0662 99.0089 -1.07075 
11 2 2.87946 97.6984 99.0799 2.1926 
34 4 3.29457 97.4662 97.1779 -0.831132 
35 3 3.91514 97.7472 96.5489 0.386941 
36 4 4.41119 98.8008 99.5816 -0.863523 
37 3 4.58441 99.6534 99.9536 0.423583 
38 4 2.72127 95.7741 99.42 -0.866522 
39 3 2.8025 94.9687 98.9666 0.38601 
25 3 94.0052 99.8831 98.2415 0.393557 
4 4 96.5865 99.3552 98.3664 -0.72285 
9 1 95.4407 98.2471 98.5654 1.24474 
22 4 95.4791 97.3362 97.2035 -0.612902 
23 4 94.0038 99.0117 98.6896 -0.696937 
24 4 95.7241 97.3245 99.8805 -0.642005 
26 3 96.2747 97.4735 96.6986 0.36614 
