ITEM: TIMESTEP
0
ITEM: NUMBER OF ATOMS
51
ITEM: BOX BOUNDS pp pp pp
0.0000000000000000e+00 1.0000000000000000e+02
0.0000000000000000e+00 1.0000000000000000e+02
0.0000000000000000e+00 1.0000000000000000e+02
ITEM: ATOMS id type x y z q 
12 4 0.44843 0.24497 1.53037 -1.0598 
40 4 4.20498 1.16149 1.15384 -0.901961 
41 3 3.98613 0.96616 2.08939 0.393742 
44 4 3.37607 4.28873 0.91731 -0.863282 
45 3 2.86219 5.03164 1.23945 0.370802 
48 4 3.02123 0.27561 3.49776 -0.882457 
49 3 3.22462 0.56619 4.39351 0.354938 
17 4 94.5531 3.68028 0.05984 -0.636191 
18 4 94.2328 1.08545 0.81639 -0.6987 
20 4 95.9601 0.60192 2.98173 -0.652521 
28 3 95.2189 0.84544 2.39047 0.404678 
29 3 93.956 0.21773 0.45311 0.391275 
31 3 95.3715 4.12226 0.31086 0.353487 
32 3 99.1638 0.10482 2.53314 0.386549 
13 2 1.55807 99.1419 2.7304 1.97719 
37 3 4.61939 99.5776 0.27819 0.411093 
46 4 2.34388 97.7242 1.55798 -0.972181 
47 3 2.37596 96.7472 1.51943 0.397495 
50 4 0.36037 98.4717 4.10259 -0.830758 
2 4 97.3559 99.9372 0.73154 -0.754791 
7 1 97.0482 99.5993 2.29443 1.22046 
19 4 96.494 98.027 2.26095 -0.700837 
21 4 98.4873 99.6881 3.10045 -0.717403 
27 3 96.0706 97.3974 0.54609 0.41544 
33 3 95.9436 97.7437 2.99954 0.347312 
51 3 99.3973 98.6165 4.12972 0.440736 
6 2 0.53062 0.5443 99.5303 2.00479 
14 4 1.81005 2.02359 99.2966 -1.00962 
15 2 3.59273 2.61557 99.9429 2.02051 
42 4 4.84355 2.75967 98.4469 -0.839168 
43 3 5.30734 3.35703 97.8554 0.371108 
16 4 93.6974 1.76732 98.3428 -0.680592 
1 1 97.2364 0.50373 99.1976 1.29483 
3 4 96.2865 1.8573 99.2101 -0.680596 
5 4 98.733 0.87374 98.691 -0.80644 
8 1 94.7067 2.11319 99.6091 1.20355 
30 3 93.7592 2.34318 97.5726 0.344838 
10 4 1.37291 98.9151 98.9282 -1.00545 
11 2 2.99602 97.7031 99.127 2.04098 
34 4 3.46208 97.2146 97.2787 -0.813893 
35 3 4.17011 97.4808 96.684 0.367024 
36 4 4.49487 98.8106 99.6835 -0.854386 
38 4 2.78075 95.8428 99.9138 -0.814306 
39 3 2.92523 95.0249 99.4256 0.353408 
25 3 93.6111 99.6328 98.3972 0.385295 
4 4 96.5302 99.3435 98.2809 -0.683989 
9 1 95.3481 98.2028 98.5344 1.22023 
22 4 95.0261 97.4787 97.0997 -0.628502 
23 4 93.9592 98.9795 99.0264 -0.692861 
24 4 95.7801 97.113 99.6598 -0.6498 
26 3 95.7877 97.1319 96.6225 0.358714 
ITEM: TIMESTEP
340
ITEM: NUMBER OF ATOMS
51
ITEM: BOX BOUNDS pp pp pp
0.0000000000000000e+00 1.0000000000000000e+02
0.0000000000000000e+00 1.0000000000000000e+02
0.0000000000000000e+00 1.0000000000000000e+02
ITEM: ATOMS id type x y z q 
12 4 0.749669 0.166587 1.55814 -1.09269 
40 4 4.0605 1.31711 0.818101 -0.948724 
41 3 4.04747 0.944941 1.69562 0.410746 
44 4 3.07294 4.30002 0.968566 -0.891933 
45 3 2.58769 5.09008 1.01943 0.380595 
48 4 3.33016 -0.0307232 3.16171 -0.928622 
49 3 3.82476 0.221347 3.91183 0.365507 
17 4 94.5076 3.57716 -0.103489 -0.64751 
18 4 94.0383 0.971451 0.480926 -0.705131 
20 4 95.6802 0.476548 2.65911 -0.64586 
28 3 95.2483 0.776832 1.84538 0.399338 
29 3 93.9352 0.0896919 0.0552727 0.375258 
31 3 95.2552 4.01963 0.291145 0.361602 
32 3 99.0661 0.208834 2.98301 0.338378 
13 2 1.71908 98.9862 2.70753 2.07455 
37 3 4.4646 99.586 0.273038 0.422557 
46 4 2.20538 97.4857 1.48573 -1.03603 
47 3 2.21655 96.5326 1.51482 0.375017 
50 4 0.403419 98.4991 4.02505 -0.883278 
2 4 97.6395 99.7014 0.915821 -0.784222 
7 1 97.0437 99.5696 2.42487 1.17099 
19 4 96.613 97.9663 2.61583 -0.669321 
21 4 98.2632 100.012 3.47231 -0.656318 
27 3 96.0634 97.7822 0.783146 0.394632 
33 3 95.8058 97.8623 3.12613 0.362411 
51 3 99.4987 98.6808 4.20947 0.441435 
6 2 0.505283 0.573912 99.7134 2.20883 
14 4 1.60451 2.05927 99.4674 -1.12306 
15 2 3.2631 2.77036 99.8536 2.19502 
42 4 4.36969 3.13247 98.3492 -0.890372 
43 3 5.25322 3.04412 98.077 0.384591 
16 4 94.3406 1.74559 97.9702 -0.709992 
1 1 97.2903 0.394468 99.4834 1.29132 
3 4 96.4088 1.7539 99.7126 -0.715075 
5 4 98.7662 0.798543 98.912 -0.850118 
8 1 94.8342 2.02008 99.5069 1.21025 
30 3 93.7157 2.40998 97.6593 0.35526 
10 4 1.44923 99.0072 99.1742 -1.06821 
11 2 2.79827 97.641 99.3025 2.19257 
34 4 3.31982 97.4536 97.4202 -0.827839 
35 3 3.99125 97.7253 96.8417 0.387037 
36 4 4.30703 98.7386 99.8811 -0.863756 
38 4 2.62493 95.7095 99.5708 -0.863183 
39 3 2.70871 94.9212 99.0897 0.388068 
25 3 94.077 99.916 98.1009 0.391448 
4 4 96.5994 99.3085 98.4917 -0.735617 
9 1 95.4137 98.2505 98.6666 1.2458 
22 4 95.6142 97.2553 97.3858 -0.611435 
23 4 93.9925 99.0441 98.5463 -0.692278 
24 4 95.4833 97.4552 100.086 -0.650255 
26 3 96.3108 97.5747 96.8145 0.367625 
