ITEM: TIMESTEP
0
ITEM: NUMBER OF ATOMS
51
ITEM: BOX BOUNDS pp pp pp
0.0000000000000000e+00 1.0000000000000000e+02
0.0000000000000000e+00 1.0000000000000000e+02
0.0000000000000000e+00 1.0000000000000000e+02
ITEM: ATOMS id type x y z q 
17 4 94.5531 3.68028 0.05984 -0.635448 
18 4 94.2328 1.08545 0.81639 -0.70187 
20 4 95.9601 0.60192 2.98173 -0.658174 
28 3 95.2189 0.84544 2.39047 0.399966 
29 3 93.956 0.21773 0.45311 0.388822 
31 3 95.3715 4.12226 0.31086 0.351259 
32 3 99.1638 0.10482 2.53314 0.341317 
50 4 3.93396 98.4938 0.9247 -0.832283 
51 3 3.28724 98.5073 1.65325 0.347386 
2 4 97.3559 99.9372 0.73154 -0.719773 
7 1 97.0482 99.5993 2.29443 1.21566 
19 4 96.494 98.027 2.26095 -0.689586 
21 4 98.4873 99.6881 3.10045 -0.609164 
27 3 96.0706 97.3974 0.54609 0.416546 
33 3 95.9436 97.7437 2.99954 0.343558 
43 3 2.45754 4.24548 93.7064 0.36977 
35 3 1.19505 98.3222 92.9874 0.36672 
6 2 0.59181 0.75391 97.9327 2.00384 
12 4 2.01059 0.36556 99.3229 -1.00892 
14 4 1.20271 2.39921 97.0384 -1.00942 
15 2 2.85321 3.19756 96.2739 2.02444 
37 3 3.98778 0.31305 95.3861 0.411757 
40 4 4.2436 1.79057 96.481 -0.901801 
41 3 4.78755 1.53003 97.254 0.394545 
42 4 2.60888 3.56803 94.3696 -0.840038 
44 4 3.31038 4.78591 97.3055 -0.863698 
45 3 3.14777 5.43979 97.9879 0.371345 
48 4 5.19739 0.66025 98.8246 -0.881402 
49 3 5.9703 0.93891 99.3278 0.353342 
16 4 93.6974 1.76732 98.3428 -0.679515 
1 1 97.2364 0.50373 99.1976 1.32839 
3 4 96.2865 1.8573 99.2101 -0.687693 
5 4 98.733 0.87374 98.691 -0.83429 
8 1 94.7067 2.11319 99.6091 1.19769 
30 3 93.7592 2.34318 97.5726 0.345585 
10 4 0.83004 99.2777 96.7119 -1.00986 
11 2 2.15843 98.2865 95.5304 2.04144 
13 2 3.71064 99.3731 99.209 1.96887 
34 4 1.16134 97.9399 93.8698 -0.817062 
36 4 3.51766 99.561 94.9728 -0.852779 
38 4 2.70047 96.3838 95.991 -0.816399 
39 3 2.49467 95.613 95.4509 0.351298 
46 4 3.48191 98.1218 97.665 -0.97107 
47 3 3.53671 97.1603 97.4935 0.395739 
25 3 93.6111 99.6328 98.3972 0.385815 
4 4 96.5302 99.3435 98.2809 -0.700812 
9 1 95.3481 98.2028 98.5344 1.22002 
22 4 95.0261 97.4787 97.0997 -0.626153 
23 4 93.9592 98.9795 99.0264 -0.695836 
24 4 95.7801 97.113 99.6598 -0.651559 
26 3 95.7877 97.1319 96.6225 0.359478 
ITEM: TIMESTEP
390
ITEM: NUMBER OF ATOMS
51
ITEM: BOX BOUNDS pp pp pp
0.0000000000000000e+00 1.0000000000000000e+02
0.0000000000000000e+00 1.0000000000000000e+02
0.0000000000000000e+00 1.0000000000000000e+02
ITEM: ATOMS id type x y z q 
17 4 94.4551 3.54815 0.0413351 -0.652924 
18 4 94.1648 0.964322 0.770548 -0.707716 
20 4 96.3083 1.01491 2.54301 -0.652263 
28 3 95.5247 1.16755 1.98797 0.403302 
29 3 94.1162 0.0415688 0.4284 0.381689 
31 3 95.2312 3.97257 0.399162 0.358496 
32 3 99.0544 -0.137823 3.02587 0.350762 
50 4 3.90579 98.4864 0.92552 -0.895821 
51 3 3.49783 98.2963 1.73797 0.375989 
2 4 97.6583 99.6545 0.658713 -0.736509 
7 1 97.062 99.6227 2.14432 1.22566 
19 4 95.9889 98.3977 2.27008 -0.709504 
21 4 98.2858 99.3221 3.18681 -0.649678 
27 3 95.9684 97.6762 0.572086 0.403922 
33 3 96.246 97.7622 2.95132 0.361344 
43 3 2.75683 4.29324 93.7027 0.380901 
35 3 1.48981 98.477 93.2074 0.384851 
6 2 0.771003 0.924372 97.7973 2.06886 
12 4 1.9385 0.316321 99.1643 -1.08518 
14 4 1.26264 2.58412 97.11 -1.12512 
15 2 2.66586 3.41586 96.236 2.18265 
37 3 4.07567 0.315536 95.5674 0.423846 
40 4 3.95412 2.00016 96.3643 -0.948048 
41 3 4.48452 1.57117 97.0307 0.407026 
42 4 2.34954 3.85209 94.4113 -0.892255 
44 4 3.25586 4.94495 97.2028 -0.895727 
45 3 3.01841 5.45866 97.9391 0.375696 
48 4 4.83067 0.483207 98.5272 -0.933075 
49 3 5.73754 0.689645 98.642 0.363657 
16 4 93.9811 1.66191 98.2151 -0.710494 
1 1 97.196 0.399036 99.2891 1.3087 
3 4 96.3234 1.75748 99.5491 -0.709084 
5 4 98.5756 0.855523 98.5582 -0.715143 
8 1 94.7334 1.98864 99.6288 1.20577 
30 3 93.4613 2.40467 97.8948 0.356906 
10 4 1.19141 99.4797 96.622 -1.06017 
11 2 2.36483 98.1878 95.7888 2.18372 
13 2 3.50126 99.261 99.2238 2.11054 
34 4 1.48364 98.0593 94.0349 -0.828659 
36 4 3.80441 99.4361 95.3469 -0.860708 
38 4 2.60784 96.2418 95.9054 -0.862469 
39 3 2.49453 95.486 95.3803 0.383423 
46 4 3.20605 97.8929 97.8494 -1.06099 
47 3 3.32508 96.95 97.7598 0.375981 
25 3 93.803 99.8284 98.4694 0.399515 
4 4 96.4433 99.3574 98.2867 -0.722252 
9 1 95.3231 98.2377 98.5353 1.2446 
22 4 95.1383 97.3952 97.1435 -0.61715 
23 4 93.9246 98.9747 98.9373 -0.699921 
24 4 95.7915 97.23 99.7303 -0.647985 
26 3 95.9629 97.2192 96.6985 0.361032 
