ITEM: TIMESTEP
0
ITEM: NUMBER OF ATOMS
51
ITEM: BOX BOUNDS pp pp pp
0.0000000000000000e+00 1.0000000000000000e+02
0.0000000000000000e+00 1.0000000000000000e+02
0.0000000000000000e+00 1.0000000000000000e+02
ITEM: ATOMS id type x y z q 
12 4 1.78961 0.32906 0.01788 -1.0135 
48 4 5.01474 0.56162 0.20561 -0.882 
49 3 5.66823 0.83989 0.85654 0.353354 
17 4 94.5531 3.68028 0.05984 -0.635799 
18 4 94.2328 1.08545 0.81639 -0.701381 
20 4 95.9601 0.60192 2.98173 -0.656161 
28 3 95.2189 0.84544 2.39047 0.400678 
29 3 93.956 0.21773 0.45311 0.389093 
31 3 95.3715 4.12226 0.31086 0.351823 
32 3 99.1638 0.10482 2.53314 0.333673 
13 2 3.45423 99.3075 0.28912 1.96853 
50 4 3.28886 98.4656 2.02994 -0.83151 
51 3 2.50218 98.5065 2.60325 0.352081 
2 4 97.3559 99.9372 0.73154 -0.727852 
7 1 97.0482 99.5993 2.29443 1.21638 
19 4 96.494 98.027 2.26095 -0.689801 
21 4 98.4873 99.6881 3.10045 -0.610731 
27 3 96.0706 97.3974 0.54609 0.416446 
33 3 95.9436 97.7437 2.99954 0.344968 
35 3 2.30103 98.1496 93.6959 0.36704 
6 2 0.70784 0.70673 98.3495 2.00316 
14 4 1.52874 2.32059 97.5739 -1.00883 
15 2 3.32019 3.07453 97.1637 2.0234 
37 3 4.55867 0.15232 96.5957 0.411795 
40 4 4.60549 1.6511 97.6906 -0.901599 
41 3 4.96681 1.40037 98.5668 0.394536 
42 4 3.49482 3.40367 95.2442 -0.839664 
43 3 3.50215 4.06754 94.5507 0.370216 
44 4 3.57945 4.67943 98.2375 -0.863363 
45 3 3.28857 5.35175 98.8565 0.371319 
16 4 93.6974 1.76732 98.3428 -0.679562 
1 1 97.2364 0.50373 99.1976 1.32717 
3 4 96.2865 1.8573 99.2101 -0.685568 
5 4 98.733 0.87374 98.691 -0.831019 
8 1 94.7067 2.11319 99.6091 1.19773 
30 3 93.7592 2.34318 97.5726 0.345455 
10 4 1.17047 99.1985 97.2371 -1.00829 
11 2 2.69954 98.1588 96.3862 2.0414 
34 4 2.07229 97.7888 94.5581 -0.815671 
36 4 4.17213 99.3982 96.1065 -0.852888 
38 4 3.092 96.2593 96.9893 -0.81584 
39 3 2.99029 95.4792 96.433 0.351953 
46 4 3.53418 98.0238 98.7569 -0.971495 
47 3 3.60461 97.0577 98.6201 0.396075 
25 3 93.6111 99.6328 98.3972 0.385664 
4 4 96.5302 99.3435 98.2809 -0.695829 
9 1 95.3481 98.2028 98.5344 1.21862 
22 4 95.0261 97.4787 97.0997 -0.627249 
23 4 93.9592 98.9795 99.0264 -0.695427 
24 4 95.7801 97.113 99.6598 -0.651103 
26 3 95.7877 97.1319 96.6225 0.359593 
ITEM: TIMESTEP
307
ITEM: NUMBER OF ATOMS
51
ITEM: BOX BOUNDS pp pp pp
0.0000000000000000e+00 1.0000000000000000e+02
0.0000000000000000e+00 1.0000000000000000e+02
0.0000000000000000e+00 1.0000000000000000e+02
ITEM: ATOMS id type x y z q 
12 4 1.72652 0.301455 -0.157417 -1.08341 
48 4 4.68743 0.389854 -0.132353 -0.933137 
49 3 5.54954 0.582664 0.179891 0.363677 
17 4 94.4811 3.55415 0.0542372 -0.652291 
18 4 94.1698 0.956069 0.754764 -0.710545 
20 4 96.2454 0.822448 2.60603 -0.661831 
28 3 95.5362 1.02633 1.97541 0.400042 
29 3 94.0777 0.0487573 0.381184 0.374185 
31 3 95.2701 3.99383 0.361399 0.358274 
32 3 99.2017 -0.111151 2.75463 0.342939 
13 2 3.20606 99.2119 0.271731 2.10971 
50 4 3.19175 98.472 2.03589 -0.896228 
51 3 2.60095 98.2946 2.73062 0.380912 
2 4 97.6321 99.6239 0.650402 -0.75232 
7 1 97.1325 99.5376 2.15514 1.2421 
19 4 96.1931 98.22 2.3316 -0.70959 
21 4 98.4524 99.4151 3.10832 -0.639084 
27 3 95.9917 97.6608 0.578581 0.416402 
33 3 95.9922 97.9919 3.24417 0.36311 
35 3 2.5117 98.2994 93.9766 0.384703 
6 2 0.905231 0.889339 98.2321 2.06338 
14 4 1.56969 2.52882 97.6491 -1.12675 
15 2 3.15624 3.30029 97.0863 2.18087 
37 3 4.61459 0.163573 96.794 0.424863 
40 4 4.34541 1.86056 97.5273 -0.947986 
41 3 4.70504 1.43906 98.3036 0.407227 
42 4 3.23883 3.67999 95.2235 -0.892364 
43 3 3.78677 4.10573 94.6062 0.38117 
44 4 3.57059 4.84529 98.117 -0.895273 
45 3 3.2027 5.37937 98.7818 0.375744 
16 4 94.0042 1.68759 98.212 -0.711063 
1 1 97.1912 0.372516 99.293 1.31162 
3 4 96.3456 1.75107 99.5515 -0.71221 
5 4 98.6123 0.772456 98.6033 -0.714193 
8 1 94.7555 1.99569 99.6323 1.20402 
30 3 93.4427 2.41468 97.927 0.356458 
10 4 1.55535 99.413 97.2105 -1.06027 
11 2 2.84878 98.0733 96.6874 2.18505 
34 4 2.34144 97.8991 94.7952 -0.827903 
36 4 4.37631 99.2848 96.5357 -0.859563 
38 4 3.04381 96.1298 96.9005 -0.861589 
39 3 3.02044 95.3596 96.3844 0.384439 
46 4 3.20441 97.8215 98.8886 -1.06185 
47 3 3.33213 96.8762 98.8418 0.376395 
25 3 93.8009 99.8539 98.4338 0.396861 
4 4 96.4192 99.3498 98.2833 -0.722796 
9 1 95.2932 98.237 98.5369 1.24398 
22 4 95.1355 97.382 97.1487 -0.61551 
23 4 93.8887 98.9888 98.8905 -0.699155 
24 4 95.7227 97.2386 99.7521 -0.64357 
26 3 95.9451 97.3384 96.647 0.362359 
