ITEM: TIMESTEP
0
ITEM: NUMBER OF ATOMS
51
ITEM: BOX BOUNDS pp pp pp
0.0000000000000000e+00 1.0000000000000000e+02
0.0000000000000000e+00 1.0000000000000000e+02
0.0000000000000000e+00 1.0000000000000000e+02
ITEM: ATOMS id type x y z q 
12 4 0.60804 0.24313 1.42717 -1.04821 
40 4 4.33022 1.19449 0.84953 -0.901916 
41 3 4.16508 0.99174 1.79446 0.39371 
44 4 3.4634 4.31575 0.67912 -0.86319 
45 3 2.96193 5.05225 1.03391 0.370959 
48 4 3.28535 0.28451 3.24956 -0.882435 
49 3 3.53554 0.57155 4.13455 0.354638 
17 4 94.5531 3.68028 0.05984 -0.636266 
18 4 94.2328 1.08545 0.81639 -0.699058 
20 4 95.9601 0.60192 2.98173 -0.651707 
28 3 95.2189 0.84544 2.39047 0.404085 
29 3 93.956 0.21773 0.45311 0.390925 
31 3 95.3715 4.12226 0.31086 0.353488 
32 3 99.1638 0.10482 2.53314 0.366878 
13 2 1.79152 99.1427 2.55699 1.97524 
46 4 2.52311 97.7388 1.33392 -0.97206 
47 3 2.56116 96.7624 1.28742 0.397466 
50 4 0.67719 98.454 3.98896 -0.832608 
2 4 97.3559 99.9372 0.73154 -0.752453 
7 1 97.0482 99.5993 2.29443 1.22029 
19 4 96.494 98.027 2.26095 -0.698109 
21 4 98.4873 99.6881 3.10045 -0.692095 
27 3 96.0706 97.3974 0.54609 0.415524 
33 3 95.9436 97.7437 2.99954 0.348214 
51 3 99.7159 98.5902 4.07018 0.423021 
6 2 0.57698 0.55499 99.4276 2.00322 
14 4 1.82912 2.04671 99.133 -1.0093 
15 2 3.63981 2.65033 99.6835 2.02071 
42 4 4.80473 2.81415 98.1217 -0.839019 
43 3 5.23009 3.419 97.5093 0.371226 
16 4 93.6974 1.76732 98.3428 -0.680511 
1 1 97.2364 0.50373 99.1976 1.29975 
3 4 96.2865 1.8573 99.2101 -0.680944 
5 4 98.733 0.87374 98.691 -0.809372 
8 1 94.7067 2.11319 99.6091 1.20276 
30 3 93.7592 2.34318 97.5726 0.345088 
10 4 1.39826 98.9368 98.7695 -1.00562 
11 2 3.03995 97.7378 98.8705 2.04082 
34 4 3.40714 97.2643 96.9962 -0.813847 
35 3 4.07895 97.5401 96.365 0.367254 
36 4 4.55799 98.855 99.3504 -0.854139 
37 3 4.70879 99.6195 99.9422 0.411225 
38 4 2.88408 95.8711 99.6562 -0.814419 
39 3 3.00817 95.0573 99.1555 0.353311 
25 3 93.6111 99.6328 98.3972 0.385382 
4 4 96.5302 99.3435 98.2809 -0.685124 
9 1 95.3481 98.2028 98.5344 1.21983 
22 4 95.0261 97.4787 97.0997 -0.628389 
23 4 93.9592 98.9795 99.0264 -0.693257 
24 4 95.7801 97.113 99.6598 -0.649891 
26 3 95.7877 97.1319 96.6225 0.358907 
ITEM: TIMESTEP
815
ITEM: NUMBER OF ATOMS
51
ITEM: BOX BOUNDS pp pp pp
0.0000000000000000e+00 1.0000000000000000e+02
0.0000000000000000e+00 1.0000000000000000e+02
0.0000000000000000e+00 1.0000000000000000e+02
ITEM: ATOMS id type x y z q 
12 4 0.80552 0.0906358 1.49555 -1.09763 
40 4 4.19307 1.39019 0.504621 -0.946571 
41 3 4.24437 1.00152 1.37486 0.412833 
44 4 3.16 4.36184 0.730463 -0.89161 
45 3 2.67229 5.148 0.811435 0.380351 
48 4 3.57016 0.0161274 2.81812 -0.926714 
49 3 4.21325 0.185459 3.47654 0.364304 
17 4 94.4677 3.51484 99.9733 -0.650062 
18 4 94.1085 0.888635 0.497484 -0.713105 
20 4 95.882 0.779989 2.64833 -0.644376 
28 3 95.3108 0.94895 1.88344 0.399 
29 3 94.027 0.0110489 0.0594155 0.374461 
31 3 95.198 3.93812 0.417965 0.362112 
32 3 99.1378 99.9377 2.89027 0.338989 
13 2 1.93505 98.9872 2.57152 2.07395 
46 4 2.34362 97.4924 1.31144 -1.03512 
47 3 2.34213 96.5392 1.33034 0.37318 
50 4 0.966804 98.4611 4.14887 -0.886492 
2 4 97.6051 99.6776 0.837946 -0.779151 
7 1 97.0291 99.6199 2.35976 1.17376 
19 4 96.295 98.1332 2.55229 -0.674704 
21 4 98.3322 99.7793 3.38264 -0.647423 
27 3 95.9849 97.7962 0.680595 0.405588 
33 3 95.7137 98.1004 3.3145 0.360928 
51 3 0.115995 98.5574 4.51269 0.416653 
6 2 0.535291 0.567052 99.6694 2.20907 
14 4 1.60816 2.06745 99.4126 -1.12856 
15 2 3.27773 2.82203 99.6194 2.1982 
42 4 4.23501 3.19663 98.0193 -0.891949 
43 3 5.08991 3.11588 97.6651 0.383901 
16 4 94.2521 1.7418 97.9902 -0.709557 
1 1 97.295 0.39305 99.4066 1.29642 
3 4 96.4089 1.7547 99.6119 -0.709362 
5 4 98.7866 0.797721 98.8822 -0.849075 
8 1 94.817 1.9843 99.5072 1.20849 
30 3 93.6387 2.42931 97.7102 0.356324 
10 4 1.48419 99.0335 99.053 -1.06858 
11 2 2.84196 97.6722 99.1053 2.19199 
34 4 3.28835 97.5059 97.2014 -0.827222 
35 3 3.92326 97.8034 96.5949 0.387002 
36 4 4.36565 98.7824 99.6166 -0.86455 
37 3 4.53433 99.644 99.9723 0.421969 
38 4 2.65123 95.7391 99.349 -0.863896 
39 3 2.68834 94.9593 98.8487 0.387784 
25 3 94.0623 99.899 98.0819 0.393659 
4 4 96.6234 99.3269 98.3782 -0.731103 
9 1 95.4558 98.2426 98.5326 1.24605 
22 4 95.6113 97.2996 97.2056 -0.611528 
23 4 94.0197 99.0177 98.5134 -0.694103 
24 4 95.596 97.3766 99.9054 -0.641565 
26 3 96.3553 97.5706 96.6721 0.367032 
