ITEM: TIMESTEP
0
ITEM: NUMBER OF ATOMS
51
ITEM: BOX BOUNDS pp pp pp
0.0000000000000000e+00 1.0000000000000000e+02
0.0000000000000000e+00 1.0000000000000000e+02
0.0000000000000000e+00 1.0000000000000000e+02
ITEM: ATOMS id type x y z q 
12 4 0.79234 0.24357 1.2914 -1.0382 
40 4 4.45807 1.23807 0.47478 -0.901838 
41 3 4.35827 1.02692 1.42702 0.393716 
44 4 3.55059 4.35117 0.38661 -0.863116 
45 3 3.06651 5.07983 0.77967 0.371113 
48 4 3.58454 0.30022 2.93189 -0.882555 
49 3 3.89024 0.58362 3.80047 0.354295 
17 4 94.5531 3.68028 0.05984 -0.636327 
18 4 94.2328 1.08545 0.81639 -0.699441 
20 4 95.9601 0.60192 2.98173 -0.651421 
28 3 95.2189 0.84544 2.39047 0.403466 
29 3 93.956 0.21773 0.45311 0.39054 
31 3 95.3715 4.12226 0.31086 0.353433 
32 3 99.1638 0.10482 2.53314 0.349884 
13 2 2.05942 99.1477 2.33142 1.97366 
46 4 2.72195 97.7603 1.05154 -0.972046 
47 3 2.76661 96.7846 0.99505 0.397367 
50 4 1.04989 98.4372 3.82897 -0.832249 
51 3 0.09483 98.5627 3.97501 0.403593 
2 4 97.3559 99.9372 0.73154 -0.749302 
7 1 97.0482 99.5993 2.29443 1.2195 
19 4 96.494 98.027 2.26095 -0.695584 
21 4 98.4873 99.6881 3.10045 -0.667087 
27 3 96.0706 97.3974 0.54609 0.415664 
33 3 95.9436 97.7437 2.99954 0.348613 
6 2 0.62505 0.5692 99.3008 2.00212 
14 4 1.83978 2.07604 98.9351 -1.00902 
15 2 3.67697 2.69477 99.3686 2.021 
42 4 4.73358 2.88185 97.7341 -0.838903 
43 3 5.11113 3.49545 97.0994 0.371273 
16 4 93.6974 1.76732 98.3428 -0.680396 
1 1 97.2364 0.50373 99.1976 1.3051 
3 4 96.2865 1.8573 99.2101 -0.681385 
5 4 98.733 0.87374 98.691 -0.812775 
8 1 94.7067 2.11319 99.6091 1.20185 
30 3 93.7592 2.34318 97.5726 0.345323 
10 4 1.41684 98.9644 98.5769 -1.00586 
11 2 3.07356 97.782 98.5593 2.04073 
34 4 3.31982 97.3257 96.6611 -0.813853 
35 3 3.9453 97.613 95.9888 0.367444 
36 4 4.60891 98.9117 98.9458 -0.853881 
37 3 4.79113 99.6736 99.5321 0.411371 
38 4 2.98907 95.9083 99.3391 -0.814566 
39 3 3.08769 95.0995 98.825 0.353178 
25 3 93.6111 99.6328 98.3972 0.385476 
4 4 96.5302 99.3435 98.2809 -0.686468 
9 1 95.3481 98.2028 98.5344 1.2194 
22 4 95.0261 97.4787 97.0997 -0.628263 
23 4 93.9592 98.9795 99.0264 -0.69367 
24 4 95.7801 97.113 99.6598 -0.649999 
26 3 95.7877 97.1319 96.6225 0.359099 
ITEM: TIMESTEP
31
ITEM: NUMBER OF ATOMS
51
ITEM: BOX BOUNDS pp pp pp
0.0000000000000000e+00 1.0000000000000000e+02
0.0000000000000000e+00 1.0000000000000000e+02
0.0000000000000000e+00 1.0000000000000000e+02
ITEM: ATOMS id type x y z q 
12 4 0.880482 0.206898 1.15441 -1.12173 
40 4 4.3065 1.25605 0.424203 -0.952196 
41 3 4.38661 1.0209 1.34538 0.409589 
44 4 3.59414 4.28128 0.308589 -0.897382 
45 3 3.0211 4.91324 0.674997 0.371594 
48 4 3.50067 0.243218 2.85667 -0.934057 
49 3 3.86079 0.533809 3.66879 0.370986 
17 4 94.5474 3.61936 0.00424454 -0.645852 
18 4 94.2574 1.05899 0.795996 -0.715673 
20 4 95.9205 0.56285 2.94294 -0.64536 
28 3 95.2659 0.892534 2.31021 0.408147 
29 3 94.0012 0.170772 0.447976 0.387017 
31 3 95.3495 4.05099 0.292209 0.35369 
32 3 99.179 0.0939873 2.55787 0.342366 
13 2 2.04836 99.1633 2.20063 2.12703 
46 4 2.65327 97.789 0.952205 -1.06551 
47 3 2.80217 96.8397 0.964111 0.382965 
50 4 1.05208 98.4685 3.67931 -0.883401 
51 3 0.188191 98.5192 4.0305 0.429359 
2 4 97.4531 99.969 0.738087 -0.764407 
7 1 97.0646 99.5626 2.26641 1.18057 
19 4 96.4734 97.9794 2.28582 -0.687317 
21 4 98.5015 99.6897 3.10691 -0.654446 
27 3 96.0542 97.448 0.516042 0.410252 
33 3 95.9428 97.786 3.06438 0.351742 
6 2 0.596627 0.623281 99.3256 2.17405 
14 4 1.82102 2.02547 99.0808 -1.12881 
15 2 3.54868 2.64174 99.3436 2.18362 
42 4 4.57432 2.8455 97.7505 -0.882802 
43 3 5.03683 3.49663 97.2762 0.383686 
16 4 93.8406 1.64884 98.2885 -0.711443 
1 1 97.2303 0.494909 99.2164 1.30952 
3 4 96.3115 1.84762 99.233 -0.704152 
5 4 98.7495 0.865413 98.6839 -0.843375 
8 1 94.7526 2.04739 99.5874 1.22333 
30 3 93.7703 2.35338 97.6418 0.353795 
10 4 1.52448 99.0794 98.6872 -1.06409 
11 2 2.97684 97.8137 98.7303 2.18853 
34 4 3.27647 97.4151 96.83 -0.828485 
35 3 3.87467 97.6159 96.1497 0.390214 
36 4 4.53616 98.9534 99.0238 -0.860689 
37 3 4.79415 99.6944 99.558 0.427975 
38 4 2.97961 95.9198 99.2499 -0.868042 
39 3 3.08016 95.0809 98.8642 0.383714 
25 3 93.7206 99.7974 98.467 0.402436 
4 4 96.5711 99.331 98.2863 -0.711044 
9 1 95.3732 98.2938 98.5417 1.24797 
22 4 95.0471 97.554 97.1182 -0.624548 
23 4 93.9942 99.0276 99.0247 -0.7116 
24 4 95.8409 97.1604 99.6181 -0.652316 
26 3 95.8028 97.1566 96.697 0.36457 
