ITEM: TIMESTEP
0
ITEM: NUMBER OF ATOMS
51
ITEM: BOX BOUNDS pp pp pp
0.0000000000000000e+00 1.0000000000000000e+02
0.0000000000000000e+00 1.0000000000000000e+02
0.0000000000000000e+00 1.0000000000000000e+02
ITEM: ATOMS id type x y z q 
12 4 1.33 0.26554 0.76121 -1.0216 
41 3 4.81314 1.17512 0.13809 0.394121 
48 4 4.41038 0.38996 1.75448 -0.882768 
49 3 4.8898 0.66635 2.54312 0.35355 
17 4 94.5531 3.68028 0.05984 -0.636282 
18 4 94.2328 1.08545 0.81639 -0.700503 
20 4 95.9601 0.60192 2.98173 -0.65318 
28 3 95.2189 0.84544 2.39047 0.401929 
29 3 93.956 0.21773 0.45311 0.38963 
31 3 95.3715 4.12226 0.31086 0.352823 
32 3 99.1638 0.10482 2.53314 0.329441 
13 2 2.8273 99.1953 1.46886 1.97029 
46 4 3.23638 97.8595 0.03698 -0.971973 
50 4 2.19247 98.4179 3.12997 -0.830135 
51 3 1.2891 98.5056 3.48416 0.366436 
2 4 97.3559 99.9372 0.73154 -0.738782 
7 1 97.0482 99.5993 2.29443 1.2174 
19 4 96.494 98.027 2.26095 -0.691281 
21 4 98.4873 99.6881 3.10045 -0.623758 
27 3 96.0706 97.3974 0.54609 0.41612 
33 3 95.9436 97.7437 2.99954 0.347325 
6 2 0.72115 0.62575 98.8649 2.00176 
14 4 1.77911 2.18298 98.2856 -1.00862 
15 2 3.64655 2.85907 98.3253 2.02208 
40 4 4.69555 1.4093 99.1933 -0.901576 
42 4 4.31355 3.11805 96.5056 -0.839012 
43 3 4.52386 3.7579 95.8214 0.370886 
44 4 3.69471 4.48849 99.3924 -0.863094 
45 3 3.28602 5.19082 99.9018 0.371315 
16 4 93.6974 1.76732 98.3428 -0.679952 
1 1 97.2364 0.50373 99.1976 1.31861 
3 4 96.2865 1.8573 99.2101 -0.683076 
5 4 98.733 0.87374 98.691 -0.822743 
8 1 94.7067 2.11319 99.6091 1.19937 
30 3 93.7592 2.34318 97.5726 0.345602 
10 4 1.38472 99.066 97.9411 -1.00688 
11 2 3.03325 97.9453 97.5297 2.04093 
34 4 2.8722 97.5374 95.6114 -0.814378 
35 3 3.32617 97.861 94.8272 0.367481 
36 4 4.58019 99.1219 97.6036 -0.853233 
37 3 4.86259 99.8777 98.1573 0.411699 
38 4 3.17958 96.0541 98.2563 -0.815128 
39 3 3.18833 95.2602 97.7106 0.352617 
47 3 3.29782 96.8875 99.9448 0.396751 
25 3 93.6111 99.6328 98.3972 0.385631 
4 4 96.5302 99.3435 98.2809 -0.690789 
9 1 95.3481 98.2028 98.5344 1.2185 
22 4 95.0261 97.4787 97.0997 -0.627895 
23 4 93.9592 98.9795 99.0264 -0.69466 
24 4 95.7801 97.113 99.6598 -0.650444 
26 3 95.7877 97.1319 96.6225 0.359454 
ITEM: TIMESTEP
215
ITEM: NUMBER OF ATOMS
51
ITEM: BOX BOUNDS pp pp pp
0.0000000000000000e+00 1.0000000000000000e+02
0.0000000000000000e+00 1.0000000000000000e+02
0.0000000000000000e+00 1.0000000000000000e+02
ITEM: ATOMS id type x y z q 
12 4 1.28275 0.226214 0.602259 -1.09065 
41 3 4.62414 1.16646 -0.112456 0.406164 
48 4 4.15136 0.238991 1.47793 -0.938334 
49 3 4.83038 0.479126 2.07493 0.363223 
17 4 94.4327 3.59924 0.0362724 -0.651006 
18 4 94.1885 0.998874 0.813368 -0.706984 
20 4 96.1827 0.592634 2.70548 -0.659185 
28 3 95.5717 0.900115 2.01417 0.398804 
29 3 94.0643 0.0955823 0.442564 0.370863 
31 3 95.2187 4.06566 0.309335 0.357766 
32 3 99.4096 -0.224488 2.33543 0.338891 
13 2 2.58046 99.1202 1.41103 2.11159 
46 4 2.96501 97.7287 0.0874368 -1.06422 
50 4 1.86067 98.4696 3.05837 -0.894265 
51 3 1.06045 98.481 3.53303 0.410668 
2 4 97.5814 99.7008 0.62229 -0.756049 
7 1 97.2601 99.4833 2.17895 1.23053 
19 4 96.5584 98.006 2.31354 -0.695642 
21 4 98.7052 99.5611 2.94608 -0.64174 
27 3 96.136 97.686 0.597643 0.412856 
33 3 95.8618 97.9716 2.97285 0.355047 
6 2 0.9185 0.790033 98.8237 2.06684 
14 4 1.80839 2.37399 98.4141 -1.12582 
15 2 3.53155 3.03386 98.2555 2.18014 
40 4 4.48187 1.55794 99.03 -0.950311 
42 4 4.07006 3.31406 96.4519 -0.891186 
43 3 4.69148 3.79783 95.9599 0.382081 
44 4 3.7586 4.60742 99.2997 -0.8969 
45 3 3.2706 5.17519 99.8492 0.376811 
16 4 93.9585 1.67599 98.2559 -0.713072 
1 1 97.1675 0.444529 99.2356 1.3057 
3 4 96.3171 1.8141 99.5295 -0.7107 
5 4 98.6188 0.818456 98.6149 -0.720587 
8 1 94.724 2.03165 99.6581 1.20508 
30 3 93.5829 2.45081 97.8302 0.358454 
10 4 1.74502 99.2622 98.0346 -1.0643 
11 2 3.08078 97.8785 97.8522 2.18708 
34 4 2.95419 97.6134 95.9082 -0.827599 
35 3 3.32499 97.9379 95.1229 0.386717 
36 4 4.65843 99.0233 97.9887 -0.857529 
37 3 4.88867 99.8786 98.3219 0.427664 
38 4 3.18045 95.9466 98.1905 -0.862837 
39 3 3.19902 95.1492 97.717 0.385893 
47 3 3.1308 96.7872 100.082 0.375848 
25 3 93.7652 99.8441 98.5159 0.399584 
4 4 96.3875 99.3926 98.2645 -0.718741 
9 1 95.2915 98.2595 98.5804 1.23922 
22 4 95.0893 97.3893 97.2063 -0.614691 
23 4 93.8869 98.9894 98.9841 -0.699207 
24 4 95.7804 97.2755 99.7856 -0.644713 
26 3 95.9021 97.2504 96.7281 0.362756 
