ITEM: TIMESTEP
0
ITEM: NUMBER OF ATOMS
51
ITEM: BOX BOUNDS pp pp pp
0.0000000000000000e+00 1.0000000000000000e+02
0.0000000000000000e+00 1.0000000000000000e+02
0.0000000000000000e+00 1.0000000000000000e+02
ITEM: ATOMS id type x y z q 
12 4 1.5909 0.29336 0.39266 -1.0168 
48 4 4.77216 0.46992 0.9751 -0.882481 
49 3 5.34569 0.74593 1.69834 0.353414 
17 4 94.5531 3.68028 0.05984 -0.636067 
18 4 94.2328 1.08545 0.81639 -0.700999 
20 4 95.9601 0.60192 2.98173 -0.654776 
28 3 95.2189 0.84544 2.39047 0.40125 
29 3 93.956 0.21773 0.45311 0.389308 
31 3 95.3715 4.12226 0.31086 0.352298 
32 3 99.1638 0.10482 2.53314 0.330119 
13 2 3.18862 99.2458 0.88061 1.96907 
50 4 2.79282 98.4332 2.59804 -0.830693 
51 3 1.94234 98.4969 3.06903 0.35714 
2 4 97.3559 99.9372 0.73154 -0.732983 
7 1 97.0482 99.5993 2.29443 1.21681 
19 4 96.494 98.027 2.26095 -0.690288 
21 4 98.4873 99.6881 3.10045 -0.614525 
27 3 96.0706 97.3974 0.54609 0.416315 
33 3 95.9436 97.7437 2.99954 0.346079 
6 2 0.73117 0.66571 98.5986 2.00245 
14 4 1.67353 2.25259 97.9104 -1.00864 
15 2 3.51659 2.96757 97.7156 2.02275 
37 3 4.75727 0.01513 97.3419 0.411777 
40 4 4.69839 1.52899 98.4152 -0.901539 
41 3 4.94367 1.28484 99.3326 0.394395 
42 4 3.93342 3.26477 95.8285 -0.839321 
43 3 4.03956 3.91797 95.1329 0.370525 
44 4 3.67319 4.58334 98.7929 -0.86321 
45 3 3.32155 5.27001 99.3627 0.371326 
16 4 93.6974 1.76732 98.3428 -0.679704 
1 1 97.2364 0.50373 99.1976 1.32393 
3 4 96.2865 1.8573 99.2101 -0.684281 
5 4 98.733 0.87374 98.691 -0.827512 
8 1 94.7067 2.11319 99.6091 1.19831 
30 3 93.7592 2.34318 97.5726 0.345529 
10 4 1.29749 99.1328 97.571 -1.00758 
11 2 2.89891 98.0529 96.929 2.04119 
34 4 2.49495 97.6672 95.0422 -0.814986 
35 3 2.83553 98.0107 94.2105 0.367271 
36 4 4.41916 99.261 96.8181 -0.852997 
38 4 3.17597 96.1557 97.5999 -0.815503 
39 3 3.12821 95.3695 97.0452 0.352278 
46 4 3.43157 97.9382 99.3863 -0.971761 
47 3 3.4991 96.969 99.2714 0.396371 
25 3 93.6111 99.6328 98.3972 0.38565 
4 4 96.5302 99.3435 98.2809 -0.693358 
9 1 95.3481 98.2028 98.5344 1.21838 
22 4 95.0261 97.4787 97.0997 -0.627611 
23 4 93.9592 98.9795 99.0264 -0.695082 
24 4 95.7801 97.113 99.6598 -0.650779 
26 3 95.7877 97.1319 96.6225 0.359551 
ITEM: TIMESTEP
244
ITEM: NUMBER OF ATOMS
51
ITEM: BOX BOUNDS pp pp pp
0.0000000000000000e+00 1.0000000000000000e+02
0.0000000000000000e+00 1.0000000000000000e+02
0.0000000000000000e+00 1.0000000000000000e+02
ITEM: ATOMS id type x y z q 
12 4 1.32688 0.224851 0.32986 -1.09306 
48 4 4.32438 0.297199 0.632477 -0.936147 
49 3 5.16101 0.462026 1.02267 0.361928 
17 4 94.6379 3.58825 0.0463872 -0.652217 
18 4 94.3368 0.978686 0.738726 -0.715244 
20 4 96.3952 0.729249 2.61188 -0.662553 
28 3 95.7029 0.958016 1.97037 0.400272 
29 3 94.1661 0.0971427 0.339354 0.37329 
31 3 95.4359 4.03521 0.319625 0.358847 
32 3 99.483 -0.301609 2.17053 0.343123 
13 2 2.78078 99.1563 0.891218 2.10697 
50 4 2.5119 98.4351 2.64285 -0.892965 
51 3 1.84409 98.3542 3.28458 0.396176 
2 4 97.7106 99.5971 0.569277 -0.769483 
7 1 97.3469 99.506 2.11608 1.23482 
19 4 96.524 98.1177 2.36192 -0.69414 
21 4 98.8137 99.5244 2.83962 -0.633756 
27 3 96.2175 97.7208 0.526244 0.413043 
33 3 96.0282 98.1355 3.18282 0.357079 
6 2 0.685644 0.814175 98.6316 2.21022 
14 4 1.55988 2.38095 98.1379 -1.14347 
15 2 3.17683 3.16055 97.6992 2.19501 
37 3 4.66383 0.0604021 97.5675 0.424849 
40 4 4.35843 1.76166 98.2626 -0.943327 
41 3 4.59927 1.31116 99.0672 0.407731 
42 4 3.44378 3.49128 95.8453 -0.892902 
43 3 4.1145 3.74801 95.2559 0.382352 
44 4 3.45706 4.72834 98.7387 -0.893471 
45 3 3.01115 5.26963 99.3474 0.37764 
16 4 94.1202 1.71492 98.2111 -0.714014 
1 1 97.3166 0.39165 99.218 1.34607 
3 4 96.4871 1.77318 99.5013 -0.718118 
5 4 98.7777 0.761548 98.6247 -0.883541 
8 1 94.8996 2.02873 99.6153 1.21089 
30 3 93.5709 2.44146 97.9056 0.356595 
10 4 1.53765 99.3694 97.7136 -1.0703 
11 2 2.85901 98.0165 97.3068 2.1877 
34 4 2.54743 97.8219 95.3759 -0.83023 
35 3 2.86159 98.1571 94.5706 0.385349 
36 4 4.4272 99.1852 97.2967 -0.860075 
38 4 3.03881 96.0766 97.5798 -0.86071 
39 3 3.09648 95.2969 97.08 0.38383 
46 4 2.94259 97.7538 99.5246 -1.05993 
47 3 3.05453 96.8045 99.4931 0.38283 
25 3 93.9248 99.8772 98.419 0.396423 
4 4 96.535 99.3725 98.2096 -0.723212 
9 1 95.4121 98.2539 98.4952 1.24282 
22 4 95.254 97.3706 97.1225 -0.614236 
23 4 94.0082 99.0061 98.8562 -0.69877 
24 4 95.8604 97.2915 99.7365 -0.642677 
26 3 96.0694 97.2767 96.6352 0.362684 
