ITEM: TIMESTEP
0
ITEM: NUMBER OF ATOMS
51
ITEM: BOX BOUNDS pp pp pp
0.0000000000000000e+00 1.0000000000000000e+02
0.0000000000000000e+00 1.0000000000000000e+02
0.0000000000000000e+00 1.0000000000000000e+02
ITEM: ATOMS id type x y z q 
12 4 0.27885 0.24893 1.62699 -1.07577 
15 2 3.52923 2.582 0.20631 2.02033 
40 4 4.05875 1.1307 1.45891 -0.902006 
41 3 3.78542 0.9434 2.38168 0.393807 
44 4 3.27258 4.26332 1.15671 -0.863378 
45 3 2.7479 5.01271 1.44463 0.370622 
48 4 2.73601 0.27042 3.73713 -0.882745 
49 3 2.89084 0.56512 4.64121 0.35527 
17 4 94.5531 3.68028 0.05984 -0.636091 
18 4 94.2328 1.08545 0.81639 -0.69829 
20 4 95.9601 0.60192 2.98173 -0.654065 
28 3 95.2189 0.84544 2.39047 0.405379 
29 3 93.956 0.21773 0.45311 0.391659 
31 3 95.3715 4.12226 0.31086 0.353457 
32 3 99.1638 0.10482 2.53314 0.411978 
13 2 1.30869 99.1443 2.89479 1.98051 
36 4 4.41059 98.7678 0.02169 -0.854661 
37 3 4.50801 99.5376 0.61784 0.410938 
38 4 2.6597 95.8164 0.17231 -0.814191 
46 4 2.14707 97.7122 1.77753 -0.972563 
47 3 2.17255 96.7348 1.74679 0.397493 
50 4 0.02911 98.4934 4.20078 -0.824365 
2 4 97.3559 99.9372 0.73154 -0.756643 
7 1 97.0482 99.5993 2.29443 1.21954 
19 4 96.494 98.027 2.26095 -0.704265 
21 4 98.4873 99.6881 3.10045 -0.74571 
27 3 96.0706 97.3974 0.54609 0.415421 
33 3 95.9436 97.7437 2.99954 0.345723 
51 3 99.0674 98.6466 4.17227 0.456906 
6 2 0.47707 0.53441 99.6331 2.00718 
14 4 1.78087 2.00111 99.4634 -1.01006 
42 4 4.86416 2.70554 98.783 -0.83938 
43 3 5.36609 3.295 98.2152 0.37094 
16 4 93.6974 1.76732 98.3428 -0.680657 
1 1 97.2364 0.50373 99.1976 1.28927 
3 4 96.2865 1.8573 99.2101 -0.680236 
5 4 98.733 0.87374 98.691 -0.803314 
8 1 94.7067 2.11319 99.6091 1.20441 
30 3 93.7592 2.34318 97.5726 0.344548 
10 4 1.33758 98.8941 99.0897 -1.00532 
11 2 2.93589 97.6696 99.3877 2.0412 
34 4 3.50171 97.165 97.5718 -0.81397 
35 3 4.2447 97.4212 97.0167 0.366735 
39 3 2.82435 94.9941 99.698 0.353502 
25 3 93.6111 99.6328 98.3972 0.385213 
4 4 96.5302 99.3435 98.2809 -0.682791 
9 1 95.3481 98.2028 98.5344 1.22067 
22 4 95.0261 97.4787 97.0997 -0.628616 
23 4 93.9592 98.9795 99.0264 -0.692409 
24 4 95.7801 97.113 99.6598 -0.649693 
26 3 95.7877 97.1319 96.6225 0.358494 
ITEM: TIMESTEP
532
ITEM: NUMBER OF ATOMS
51
ITEM: BOX BOUNDS pp pp pp
0.0000000000000000e+00 1.0000000000000000e+02
0.0000000000000000e+00 1.0000000000000000e+02
0.0000000000000000e+00 1.0000000000000000e+02
ITEM: ATOMS id type x y z q 
12 4 0.634806 0.176047 1.72345 -1.09316 
15 2 3.21007 2.75482 0.134047 2.19528 
40 4 3.98444 1.28095 1.0841 -0.950354 
41 3 3.95568 0.894716 1.95364 0.410909 
44 4 2.94442 4.24975 1.28072 -0.89147 
45 3 2.61873 5.11915 1.25632 0.381612 
48 4 3.19781 99.9132 3.40322 -0.929039 
49 3 3.71821 0.0845125 4.15813 0.366675 
17 4 94.4516 3.56224 99.874 -0.649553 
18 4 93.9552 0.941215 0.385427 -0.705022 
20 4 95.5496 0.411094 2.6074 -0.646871 
28 3 95.132 0.685248 1.77709 0.401458 
29 3 93.8294 0.0880297 -0.0854853 0.380642 
31 3 95.1547 3.98373 0.362262 0.362101 
32 3 98.9711 0.239325 3.03869 0.343039 
13 2 1.56605 98.9902 2.9033 2.07424 
36 4 4.21649 98.6972 0.134946 -0.864387 
37 3 4.37268 99.5465 0.521462 0.421114 
38 4 2.44926 95.6925 99.8221 -0.865046 
46 4 2.05091 97.4883 1.68354 -1.03604 
47 3 2.01856 96.5341 1.68653 0.376688 
50 4 0.199281 98.5638 4.188 -0.883465 
2 4 97.6016 99.6711 0.949537 -0.786662 
7 1 96.9668 99.5741 2.44467 1.17164 
19 4 96.6082 97.9578 2.65665 -0.669259 
21 4 98.14 0.102729 3.50687 -0.657996 
27 3 96.0156 97.842 0.823734 0.394173 
33 3 95.7836 97.8229 3.12868 0.364837 
51 3 99.2968 98.7807 4.34293 0.441985 
6 2 0.449277 0.571354 99.8671 2.21003 
14 4 1.58425 2.03325 99.6434 -1.12037 
42 4 4.38188 3.19433 98.7011 -0.891535 
43 3 5.24652 3.02154 98.4088 0.383898 
16 4 94.4118 1.76784 97.9126 -0.71195 
1 1 97.2681 0.396482 99.5309 1.28726 
3 4 96.3618 1.73616 99.7827 -0.715786 
5 4 98.7485 0.830815 98.9989 -0.849416 
8 1 94.8028 2.01086 99.4827 1.21121 
30 3 93.8886 2.48837 97.548 0.357121 
10 4 1.38489 98.9933 99.3464 -1.067 
11 2 2.71258 97.6109 99.5217 2.1918 
34 4 3.3038 97.382 97.6659 -0.829805 
35 3 3.99695 97.64 97.1067 0.386826 
39 3 2.50538 94.8916 99.3573 0.387724 
25 3 94.1363 99.9327 97.9894 0.392822 
4 4 96.6028 99.3104 98.5172 -0.733633 
9 1 95.4028 98.2615 98.6821 1.24399 
22 4 95.6888 97.1567 97.5107 -0.612599 
23 4 94.0023 99.0531 98.4007 -0.688354 
24 4 95.3614 97.5845 0.163612 -0.656183 
26 3 96.4176 97.4255 96.9549 0.365865 
