ITEM: TIMESTEP
0
ITEM: NUMBER OF ATOMS
51
ITEM: BOX BOUNDS pp pp pp
0.0000000000000000e+00 1.0000000000000000e+02
0.0000000000000000e+00 1.0000000000000000e+02
0.0000000000000000e+00 1.0000000000000000e+02
ITEM: ATOMS id type x y z q 
12 4 0.79234 0.24357 1.2914 -1.0382 
40 4 4.45807 1.23807 0.47478 -0.901838 
41 3 4.35827 1.02692 1.42702 0.393716 
44 4 3.55059 4.35117 0.38661 -0.863116 
45 3 3.06651 5.07983 0.77967 0.371113 
48 4 3.58454 0.30022 2.93189 -0.882555 
49 3 3.89024 0.58362 3.80047 0.354295 
17 4 94.5531 3.68028 0.05984 -0.636327 
18 4 94.2328 1.08545 0.81639 -0.699441 
20 4 95.9601 0.60192 2.98173 -0.651421 
28 3 95.2189 0.84544 2.39047 0.403466 
29 3 93.956 0.21773 0.45311 0.39054 
31 3 95.3715 4.12226 0.31086 0.353433 
32 3 99.1638 0.10482 2.53314 0.349884 
13 2 2.05942 99.1477 2.33142 1.97366 
46 4 2.72195 97.7603 1.05154 -0.972046 
47 3 2.76661 96.7846 0.99505 0.397367 
50 4 1.04989 98.4372 3.82897 -0.832249 
51 3 0.09483 98.5627 3.97501 0.403593 
2 4 97.3559 99.9372 0.73154 -0.749302 
7 1 97.0482 99.5993 2.29443 1.2195 
19 4 96.494 98.027 2.26095 -0.695584 
21 4 98.4873 99.6881 3.10045 -0.667087 
27 3 96.0706 97.3974 0.54609 0.415664 
33 3 95.9436 97.7437 2.99954 0.348613 
6 2 0.62505 0.5692 99.3008 2.00212 
14 4 1.83978 2.07604 98.9351 -1.00902 
15 2 3.67697 2.69477 99.3686 2.021 
42 4 4.73358 2.88185 97.7341 -0.838903 
43 3 5.11113 3.49545 97.0994 0.371273 
16 4 93.6974 1.76732 98.3428 -0.680396 
1 1 97.2364 0.50373 99.1976 1.3051 
3 4 96.2865 1.8573 99.2101 -0.681385 
5 4 98.733 0.87374 98.691 -0.812775 
8 1 94.7067 2.11319 99.6091 1.20185 
30 3 93.7592 2.34318 97.5726 0.345323 
10 4 1.41684 98.9644 98.5769 -1.00586 
11 2 3.07356 97.782 98.5593 2.04073 
34 4 3.31982 97.3257 96.6611 -0.813853 
35 3 3.9453 97.613 95.9888 0.367444 
36 4 4.60891 98.9117 98.9458 -0.853881 
37 3 4.79113 99.6736 99.5321 0.411371 
38 4 2.98907 95.9083 99.3391 -0.814566 
39 3 3.08769 95.0995 98.825 0.353178 
25 3 93.6111 99.6328 98.3972 0.385476 
4 4 96.5302 99.3435 98.2809 -0.686468 
9 1 95.3481 98.2028 98.5344 1.2194 
22 4 95.0261 97.4787 97.0997 -0.628263 
23 4 93.9592 98.9795 99.0264 -0.69367 
24 4 95.7801 97.113 99.6598 -0.649999 
26 3 95.7877 97.1319 96.6225 0.359099 
ITEM: TIMESTEP
30
ITEM: NUMBER OF ATOMS
51
ITEM: BOX BOUNDS pp pp pp
0.0000000000000000e+00 1.0000000000000000e+02
0.0000000000000000e+00 1.0000000000000000e+02
0.0000000000000000e+00 1.0000000000000000e+02
ITEM: ATOMS id type x y z q 
12 4 0.866725 0.202586 1.16629 -1.12146 
40 4 4.33012 1.28449 0.423663 -0.951531 
41 3 4.36665 1.02478 1.33255 0.409848 
44 4 3.5918 4.28439 0.304533 -0.896153 
45 3 3.02056 4.91423 0.677551 0.371733 
48 4 3.5011 0.239597 2.88036 -0.936744 
49 3 3.85283 0.529527 3.69444 0.374768 
17 4 94.5516 3.62294 0.00112006 -0.644147 
18 4 94.2468 1.06524 0.786876 -0.714292 
20 4 95.9129 0.55369 2.94963 -0.643584 
28 3 95.283 0.881844 2.29593 0.407287 
29 3 94.0151 0.183236 0.424285 0.384004 
31 3 95.3609 4.04281 0.284747 0.353712 
32 3 99.2045 0.0173544 2.53328 0.344151 
13 2 2.05457 99.1699 2.20693 2.12726 
46 4 2.65857 97.8083 0.950208 -1.06869 
47 3 2.7996 96.8604 0.946527 0.379934 
50 4 1.02125 98.4901 3.66468 -0.884305 
51 3 0.150665 98.5611 3.99157 0.432835 
2 4 97.435 99.9473 0.745994 -0.766541 
7 1 97.0703 99.5595 2.28435 1.18108 
19 4 96.4876 97.9817 2.30222 -0.686851 
21 4 98.5112 99.7025 3.11831 -0.656136 
27 3 96.0748 97.4861 0.501626 0.408837 
33 3 95.9358 97.7983 3.0647 0.354157 
6 2 0.580991 0.617371 99.334 2.18164 
14 4 1.82469 2.00536 99.0892 -1.1324 
15 2 3.54487 2.64416 99.3403 2.18748 
42 4 4.57587 2.84303 97.7509 -0.882512 
43 3 5.0366 3.49357 97.2742 0.384723 
16 4 93.8412 1.65756 98.295 -0.712484 
1 1 97.2327 0.487425 99.2264 1.31075 
3 4 96.3159 1.84399 99.2449 -0.706911 
5 4 98.7568 0.851334 98.7082 -0.859351 
8 1 94.7585 2.05197 99.588 1.2226 
30 3 93.7713 2.35702 97.648 0.356541 
10 4 1.51715 99.0764 98.6926 -1.06289 
11 2 2.97026 97.8086 98.7293 2.18784 
34 4 3.27526 97.412 96.8303 -0.828382 
35 3 3.87525 97.6141 96.1521 0.391312 
36 4 4.53325 98.943 99.0219 -0.859968 
37 3 4.78043 99.6973 99.5336 0.427062 
38 4 2.97583 95.912 99.2411 -0.868345 
39 3 3.08418 95.0753 98.8534 0.385362 
25 3 93.7505 99.8012 98.5041 0.401367 
4 4 96.5628 99.3352 98.2869 -0.713658 
9 1 95.3726 98.2892 98.5361 1.24641 
22 4 95.0508 97.5491 97.112 -0.621429 
23 4 93.9842 98.9987 99.0163 -0.708051 
24 4 95.8401 97.1659 99.6235 -0.650234 
26 3 95.8135 97.1601 96.6979 0.364361 
