ITEM: TIMESTEP
0
ITEM: NUMBER OF ATOMS
51
ITEM: BOX BOUNDS pp pp pp
0.0000000000000000e+00 1.0000000000000000e+02
0.0000000000000000e+00 1.0000000000000000e+02
0.0000000000000000e+00 1.0000000000000000e+02
ITEM: ATOMS id type x y z q 
12 4 0.70822 0.24301 1.35573 -1.04237 
40 4 4.40209 1.21741 0.64914 -0.901877 
41 3 4.272 1.01006 1.59855 0.393705 
44 4 3.51272 4.33441 0.5226 -0.863149 
45 3 3.02027 5.0667 0.89811 0.37105 
48 4 3.4488 0.29228 3.08129 -0.882492 
49 3 3.72895 0.57727 3.95792 0.354451 
17 4 94.5531 3.68028 0.05984 -0.636301 
18 4 94.2328 1.08545 0.81639 -0.699267 
20 4 95.9601 0.60192 2.98173 -0.651472 
28 3 95.2189 0.84544 2.39047 0.403741 
29 3 93.956 0.21773 0.45311 0.390713 
31 3 95.3715 4.12226 0.31086 0.353466 
32 3 99.1638 0.10482 2.53314 0.35689 
13 2 1.93738 99.1448 2.43797 1.97432 
46 4 2.63234 97.7498 1.18378 -0.972048 
47 3 2.67403 96.7738 1.13196 0.397421 
50 4 0.8788 98.4443 3.90608 -0.832601 
2 4 97.3559 99.9372 0.73154 -0.750788 
7 1 97.0482 99.5993 2.29443 1.2199 
19 4 96.494 98.027 2.26095 -0.696655 
21 4 98.4873 99.6881 3.10045 -0.677842 
27 3 96.0706 97.3974 0.54609 0.415596 
33 3 95.9436 97.7437 2.99954 0.348507 
51 3 99.9203 98.5749 4.0222 0.412143 
6 2 0.60388 0.56245 99.3598 2.00253 
14 4 1.83653 2.06228 99.0267 -1.00913 
15 2 3.66245 2.67388 99.5145 2.02087 
42 4 4.76979 2.85027 97.9127 -0.838948 
43 3 5.16965 3.45986 97.288 0.371266 
16 4 93.6974 1.76732 98.3428 -0.680451 
1 1 97.2364 0.50373 99.1976 1.30271 
3 4 96.2865 1.8573 99.2101 -0.681178 
5 4 98.733 0.87374 98.691 -0.811222 
8 1 94.7067 2.11319 99.6091 1.20226 
30 3 93.7592 2.34318 97.5726 0.345223 
10 4 1.40988 98.9514 98.6661 -1.00574 
11 2 3.06065 97.7612 98.7035 2.04076 
34 4 3.36306 97.2971 96.8153 -0.81384 
35 3 4.01033 97.5791 96.1616 0.367369 
36 4 4.58878 98.885 99.1333 -0.853998 
37 3 4.75651 99.648 99.7224 0.411306 
38 4 2.94318 95.8906 99.4866 -0.814498 
39 3 3.0537 95.0796 98.9785 0.35324 
25 3 93.6111 99.6328 98.3972 0.385435 
4 4 96.5302 99.3435 98.2809 -0.68585 
9 1 95.3481 98.2028 98.5344 1.21959 
22 4 95.0261 97.4787 97.0997 -0.628319 
23 4 93.9592 98.9795 99.0264 -0.693486 
24 4 95.7801 97.113 99.6598 -0.649949 
26 3 95.7877 97.1319 96.6225 0.359016 
ITEM: TIMESTEP
204
ITEM: NUMBER OF ATOMS
51
ITEM: BOX BOUNDS pp pp pp
0.0000000000000000e+00 1.0000000000000000e+02
0.0000000000000000e+00 1.0000000000000000e+02
0.0000000000000000e+00 1.0000000000000000e+02
ITEM: ATOMS id type x y z q 
12 4 0.821636 0.114251 1.35214 -1.09439 
40 4 4.20714 1.39692 0.363384 -0.947838 
41 3 4.23009 1.02234 1.23923 0.41037 
44 4 3.3106 4.40005 0.496839 -0.893221 
45 3 2.72884 5.07344 0.762244 0.378227 
48 4 3.54593 0.0964012 2.74165 -0.93143 
49 3 4.07738 0.391761 3.45078 0.362544 
17 4 94.5576 3.623 -0.0866873 -0.651149 
18 4 94.1267 1.04463 0.640638 -0.708346 
20 4 95.988 0.7019 2.68452 -0.64322 
28 3 95.4233 0.95238 1.93833 0.401611 
29 3 93.9928 0.151946 0.25082 0.375288 
31 3 95.3194 4.06155 0.283888 0.360499 
32 3 99.225 -0.15698 2.72653 0.343092 
13 2 1.96319 99.0153 2.42584 2.07262 
46 4 2.44253 97.5677 1.14006 -1.03681 
47 3 2.48895 96.6131 1.13173 0.379012 
50 4 0.842145 98.4474 3.8806 -0.888293 
2 4 97.5827 99.6127 0.760711 -0.773356 
7 1 97.0909 99.5256 2.30772 1.18152 
19 4 96.355 98.0403 2.47893 -0.679226 
21 4 98.4485 99.6544 3.26016 -0.662723 
27 3 96.1526 97.7011 0.580437 0.412253 
33 3 95.8595 97.9547 3.29328 0.360144 
51 3 99.954 98.5472 4.15339 0.433209 
6 2 0.58012 0.606525 99.5253 2.2111 
14 4 1.63734 2.11953 99.2781 -1.13289 
15 2 3.3353 2.82527 99.4297 2.19461 
42 4 4.26353 3.11492 97.7944 -0.891122 
43 3 5.12865 3.23282 97.4768 0.383643 
16 4 94.2187 1.71631 98.0956 -0.710551 
1 1 97.2943 0.415265 99.3722 1.30756 
3 4 96.435 1.77935 99.6581 -0.71411 
5 4 98.7901 0.805806 98.8576 -0.862633 
8 1 94.8489 2.04907 99.5673 1.21149 
30 3 93.6357 2.41299 97.7799 0.356627 
10 4 1.54878 99.0912 98.8931 -1.07168 
11 2 2.90572 97.7261 98.9349 2.1928 
34 4 3.25658 97.4786 97.022 -0.831742 
35 3 3.85845 97.7503 96.3712 0.386834 
36 4 4.44701 98.8322 99.396 -0.862869 
37 3 4.62742 99.6826 99.7696 0.42457 
38 4 2.79668 95.8017 99.2953 -0.866737 
39 3 2.91106 94.9935 98.8538 0.385163 
25 3 93.9688 99.8897 98.3328 0.394417 
4 4 96.5752 99.4029 98.3133 -0.712952 
9 1 95.4458 98.2771 98.5235 1.24298 
22 4 95.3637 97.4036 97.1388 -0.614125 
23 4 94.0181 99.0242 98.7923 -0.697775 
24 4 95.8402 97.2919 99.7648 -0.646136 
26 3 96.2164 97.2447 96.7434 0.363151 
