ITEM: TIMESTEP
0
ITEM: NUMBER OF ATOMS
51
ITEM: BOX BOUNDS pp pp pp
0.0000000000000000e+00 1.0000000000000000e+02
0.0000000000000000e+00 1.0000000000000000e+02
0.0000000000000000e+00 1.0000000000000000e+02
ITEM: ATOMS id type x y z q 
12 4 0.27885 0.24893 1.62699 -1.07577 
15 2 3.52923 2.582 0.20631 2.02033 
40 4 4.05875 1.1307 1.45891 -0.902006 
41 3 3.78542 0.9434 2.38168 0.393807 
44 4 3.27258 4.26332 1.15671 -0.863378 
45 3 2.7479 5.01271 1.44463 0.370622 
48 4 2.73601 0.27042 3.73713 -0.882745 
49 3 2.89084 0.56512 4.64121 0.35527 
17 4 94.5531 3.68028 0.05984 -0.636091 
18 4 94.2328 1.08545 0.81639 -0.69829 
20 4 95.9601 0.60192 2.98173 -0.654065 
28 3 95.2189 0.84544 2.39047 0.405379 
29 3 93.956 0.21773 0.45311 0.391659 
31 3 95.3715 4.12226 0.31086 0.353457 
32 3 99.1638 0.10482 2.53314 0.411978 
13 2 1.30869 99.1443 2.89479 1.98051 
36 4 4.41059 98.7678 0.02169 -0.854661 
37 3 4.50801 99.5376 0.61784 0.410938 
38 4 2.6597 95.8164 0.17231 -0.814191 
46 4 2.14707 97.7122 1.77753 -0.972563 
47 3 2.17255 96.7348 1.74679 0.397493 
50 4 0.02911 98.4934 4.20078 -0.824365 
2 4 97.3559 99.9372 0.73154 -0.756643 
7 1 97.0482 99.5993 2.29443 1.21954 
19 4 96.494 98.027 2.26095 -0.704265 
21 4 98.4873 99.6881 3.10045 -0.74571 
27 3 96.0706 97.3974 0.54609 0.415421 
33 3 95.9436 97.7437 2.99954 0.345723 
51 3 99.0674 98.6466 4.17227 0.456906 
6 2 0.47707 0.53441 99.6331 2.00718 
14 4 1.78087 2.00111 99.4634 -1.01006 
42 4 4.86416 2.70554 98.783 -0.83938 
43 3 5.36609 3.295 98.2152 0.37094 
16 4 93.6974 1.76732 98.3428 -0.680657 
1 1 97.2364 0.50373 99.1976 1.28927 
3 4 96.2865 1.8573 99.2101 -0.680236 
5 4 98.733 0.87374 98.691 -0.803314 
8 1 94.7067 2.11319 99.6091 1.20441 
30 3 93.7592 2.34318 97.5726 0.344548 
10 4 1.33758 98.8941 99.0897 -1.00532 
11 2 2.93589 97.6696 99.3877 2.0412 
34 4 3.50171 97.165 97.5718 -0.81397 
35 3 4.2447 97.4212 97.0167 0.366735 
39 3 2.82435 94.9941 99.698 0.353502 
25 3 93.6111 99.6328 98.3972 0.385213 
4 4 96.5302 99.3435 98.2809 -0.682791 
9 1 95.3481 98.2028 98.5344 1.22067 
22 4 95.0261 97.4787 97.0997 -0.628616 
23 4 93.9592 98.9795 99.0264 -0.692409 
24 4 95.7801 97.113 99.6598 -0.649693 
26 3 95.7877 97.1319 96.6225 0.358494 
ITEM: TIMESTEP
64
ITEM: NUMBER OF ATOMS
51
ITEM: BOX BOUNDS pp pp pp
0.0000000000000000e+00 1.0000000000000000e+02
0.0000000000000000e+00 1.0000000000000000e+02
0.0000000000000000e+00 1.0000000000000000e+02
ITEM: ATOMS id type x y z q 
12 4 0.529997 0.201715 1.55765 -1.0984 
15 2 3.33321 2.54609 0.107502 2.18601 
40 4 3.87709 1.15079 1.30383 -0.955498 
41 3 3.83379 0.942775 2.23557 0.406356 
44 4 3.26809 4.18191 1.07568 -0.896674 
45 3 2.66662 4.84618 1.3169 0.37436 
48 4 2.8027 0.212608 3.67537 -0.925015 
49 3 3.01161 0.565808 4.51273 0.370275 
17 4 94.514 3.63625 -0.102508 -0.648461 
18 4 94.1755 1.10532 0.739249 -0.71252 
20 4 95.7746 0.544323 2.89795 -0.647703 
28 3 95.2109 0.959788 2.23069 0.406756 
29 3 94.0089 0.17971 0.433253 0.383715 
31 3 95.2838 4.06096 0.269945 0.354809 
32 3 98.9902 0.259624 2.76878 0.342864 
13 2 1.45024 99.1051 2.83774 2.08433 
36 4 4.31651 98.7587 0.114319 -0.862701 
37 3 4.4845 99.5174 0.658489 0.425209 
38 4 2.64402 95.7942 0.0209028 -0.8677 
46 4 2.14326 97.6513 1.66826 -1.03768 
47 3 2.23018 96.6964 1.71222 0.386812 
50 4 0.214991 98.381 4.12425 -0.86676 
2 4 97.4634 99.9257 0.792119 -0.781925 
7 1 96.9674 99.5639 2.30163 1.18064 
19 4 96.4364 97.9717 2.32244 -0.691842 
21 4 98.3035 99.7917 3.26537 -0.680953 
27 3 96.0426 97.4757 0.52414 0.408412 
33 3 95.9039 97.7613 3.0954 0.353491 
51 3 99.3046 98.4828 4.33297 0.443517 
6 2 0.441248 0.569427 99.6807 2.18447 
14 4 1.64946 1.99783 99.573 -1.11946 
42 4 4.58708 2.72381 98.6858 -0.885372 
43 3 5.28575 3.27296 98.4163 0.384835 
16 4 93.9582 1.65555 98.1739 -0.712324 
1 1 97.2415 0.494101 99.2826 1.29293 
3 4 96.3467 1.85914 99.3581 -0.704472 
5 4 98.7572 0.854484 98.7553 -0.842618 
8 1 94.7605 2.05771 99.5409 1.22412 
30 3 93.733 2.40508 97.6166 0.357999 
10 4 1.44106 99.006 99.229 -1.06718 
11 2 2.80707 97.6813 99.5099 2.19361 
34 4 3.42387 97.2857 97.6938 -0.833798 
35 3 4.15046 97.4465 97.1406 0.389548 
39 3 2.81415 94.9496 99.674 0.383492 
25 3 93.7997 99.8242 98.4467 0.403217 
4 4 96.5922 99.3614 98.31 -0.704664 
9 1 95.4074 98.3029 98.5299 1.246 
22 4 95.1107 97.5723 97.093 -0.623326 
23 4 94.0278 99.0408 99.0035 -0.71102 
24 4 95.8659 97.1776 99.6205 -0.653641 
26 3 95.865 97.1321 96.7119 0.363937 
