ITEM: TIMESTEP
0
ITEM: NUMBER OF ATOMS
51
ITEM: BOX BOUNDS pp pp pp
0.0000000000000000e+00 1.0000000000000000e+02
0.0000000000000000e+00 1.0000000000000000e+02
0.0000000000000000e+00 1.0000000000000000e+02
ITEM: ATOMS id type x y z q 
12 4 1.33 0.26554 0.76121 -1.0216 
41 3 4.81314 1.17512 0.13809 0.394121 
48 4 4.41038 0.38996 1.75448 -0.882768 
49 3 4.8898 0.66635 2.54312 0.35355 
17 4 94.5531 3.68028 0.05984 -0.636282 
18 4 94.2328 1.08545 0.81639 -0.700503 
20 4 95.9601 0.60192 2.98173 -0.65318 
28 3 95.2189 0.84544 2.39047 0.401929 
29 3 93.956 0.21773 0.45311 0.38963 
31 3 95.3715 4.12226 0.31086 0.352823 
32 3 99.1638 0.10482 2.53314 0.329441 
13 2 2.8273 99.1953 1.46886 1.97029 
46 4 3.23638 97.8595 0.03698 -0.971973 
50 4 2.19247 98.4179 3.12997 -0.830135 
51 3 1.2891 98.5056 3.48416 0.366436 
2 4 97.3559 99.9372 0.73154 -0.738782 
7 1 97.0482 99.5993 2.29443 1.2174 
19 4 96.494 98.027 2.26095 -0.691281 
21 4 98.4873 99.6881 3.10045 -0.623758 
27 3 96.0706 97.3974 0.54609 0.41612 
33 3 95.9436 97.7437 2.99954 0.347325 
6 2 0.72115 0.62575 98.8649 2.00176 
14 4 1.77911 2.18298 98.2856 -1.00862 
15 2 3.64655 2.85907 98.3253 2.02208 
40 4 4.69555 1.4093 99.1933 -0.901576 
42 4 4.31355 3.11805 96.5056 -0.839012 
43 3 4.52386 3.7579 95.8214 0.370886 
44 4 3.69471 4.48849 99.3924 -0.863094 
45 3 3.28602 5.19082 99.9018 0.371315 
16 4 93.6974 1.76732 98.3428 -0.679952 
1 1 97.2364 0.50373 99.1976 1.31861 
3 4 96.2865 1.8573 99.2101 -0.683076 
5 4 98.733 0.87374 98.691 -0.822743 
8 1 94.7067 2.11319 99.6091 1.19937 
30 3 93.7592 2.34318 97.5726 0.345602 
10 4 1.38472 99.066 97.9411 -1.00688 
11 2 3.03325 97.9453 97.5297 2.04093 
34 4 2.8722 97.5374 95.6114 -0.814378 
35 3 3.32617 97.861 94.8272 0.367481 
36 4 4.58019 99.1219 97.6036 -0.853233 
37 3 4.86259 99.8777 98.1573 0.411699 
38 4 3.17958 96.0541 98.2563 -0.815128 
39 3 3.18833 95.2602 97.7106 0.352617 
47 3 3.29782 96.8875 99.9448 0.396751 
25 3 93.6111 99.6328 98.3972 0.385631 
4 4 96.5302 99.3435 98.2809 -0.690789 
9 1 95.3481 98.2028 98.5344 1.2185 
22 4 95.0261 97.4787 97.0997 -0.627895 
23 4 93.9592 98.9795 99.0264 -0.69466 
24 4 95.7801 97.113 99.6598 -0.650444 
26 3 95.7877 97.1319 96.6225 0.359454 
ITEM: TIMESTEP
60
ITEM: NUMBER OF ATOMS
51
ITEM: BOX BOUNDS pp pp pp
0.0000000000000000e+00 1.0000000000000000e+02
0.0000000000000000e+00 1.0000000000000000e+02
0.0000000000000000e+00 1.0000000000000000e+02
ITEM: ATOMS id type x y z q 
12 4 1.24556 0.214572 0.622221 -1.10262 
41 3 4.70237 1.1548 -0.0257493 0.407564 
48 4 4.1875 0.318993 1.63822 -0.936151 
49 3 4.7958 0.548524 2.30979 0.370538 
17 4 94.5417 3.64003 -0.0575347 -0.647673 
18 4 94.2524 1.07732 0.784978 -0.713478 
20 4 96.0489 0.541604 2.84836 -0.659437 
28 3 95.4314 0.881571 2.18091 0.403211 
29 3 94.0842 0.173758 0.437418 0.376823 
31 3 95.3315 4.06149 0.259182 0.357305 
32 3 99.2794 -0.0488613 2.45712 0.337699 
13 2 2.64396 99.1982 1.37728 2.12324 
46 4 3.06959 97.8742 0.003762 -1.06486 
50 4 2.03162 98.453 3.02546 -0.889547 
51 3 1.26715 98.4426 3.55326 0.403438 
2 4 97.5171 99.8472 0.716049 -0.767842 
7 1 97.158 99.503 2.2416 1.23302 
19 4 96.5146 97.9918 2.28371 -0.703303 
21 4 98.594 99.5989 3.02725 -0.639473 
27 3 96.1517 97.592 0.542703 0.414993 
33 3 95.9501 97.8338 3.04012 0.357185 
6 2 0.654588 0.708804 98.8739 2.19122 
14 4 1.72976 2.18973 98.4654 -1.13572 
15 2 3.43989 2.85579 98.2998 2.19464 
40 4 4.49053 1.4734 99.1036 -0.950555 
42 4 3.99805 3.14074 96.505 -0.888399 
43 3 4.54309 3.71649 96.0196 0.383632 
44 4 3.65749 4.46075 99.2989 -0.89575 
45 3 3.16849 5.04677 99.8291 0.375211 
16 4 93.9668 1.67076 98.2266 -0.714378 
1 1 97.2539 0.480383 99.2418 1.33306 
3 4 96.3771 1.85517 99.3734 -0.706808 
5 4 98.751 0.837187 98.6738 -0.879411 
8 1 94.7863 2.05591 99.5872 1.21054 
30 3 93.7335 2.42896 97.6947 0.361406 
10 4 1.54779 99.2254 98.048 -1.06921 
11 2 2.96644 97.9559 97.7678 2.19225 
34 4 2.83041 97.6507 95.831 -0.828875 
35 3 3.27238 97.8672 95.0437 0.389393 
36 4 4.54927 99.0943 97.7814 -0.860147 
37 3 4.85517 99.8783 98.2106 0.429296 
38 4 3.12673 96.0411 98.1782 -0.867134 
39 3 3.18844 95.2271 97.7342 0.383543 
47 3 3.28625 96.9426 99.9569 0.378013 
25 3 93.8359 99.8395 98.5289 0.400191 
4 4 96.5419 99.3837 98.2744 -0.719015 
9 1 95.3975 98.2887 98.5447 1.24687 
22 4 95.118 97.5003 97.1349 -0.619364 
23 4 94.0178 99.0089 99.0209 -0.708549 
24 4 95.9024 97.2257 99.6748 -0.64995 
26 3 95.906 97.1614 96.7216 0.363372 
