ITEM: TIMESTEP
0
ITEM: NUMBER OF ATOMS
51
ITEM: BOX BOUNDS pp pp pp
0.0000000000000000e+00 1.0000000000000000e+02
0.0000000000000000e+00 1.0000000000000000e+02
0.0000000000000000e+00 1.0000000000000000e+02
ITEM: ATOMS id type x y z q 
12 4 0.86698 0.24462 1.23076 -1.03498 
40 4 4.50414 1.25758 0.3151 -0.901804 
41 3 4.43193 1.04309 1.26907 0.393746 
44 4 3.58125 4.36695 0.26222 -0.863094 
45 3 3.10525 5.09228 0.67097 0.371165 
48 4 3.70373 0.30844 2.79269 -0.882617 
49 3 4.03239 0.59051 3.65327 0.354167 
17 4 94.5531 3.68028 0.05984 -0.636348 
18 4 94.2328 1.08545 0.81639 -0.699595 
20 4 95.9601 0.60192 2.98173 -0.651473 
28 3 95.2189 0.84544 2.39047 0.40323 
29 3 93.956 0.21773 0.45311 0.390391 
31 3 95.3715 4.12226 0.31086 0.35339 
32 3 99.1638 0.10482 2.53314 0.344668 
13 2 2.16734 99.1511 2.23145 1.97312 
46 4 2.79971 97.7705 0.92916 -0.972044 
47 3 2.84693 96.7952 0.86834 0.397308 
50 4 1.20316 98.4317 3.7544 -0.831809 
51 3 0.25203 98.5526 3.9275 0.396593 
2 4 97.3559 99.9372 0.73154 -0.747933 
7 1 97.0482 99.5993 2.29443 1.21913 
19 4 96.494 98.027 2.26095 -0.694738 
21 4 98.4873 99.6881 3.10045 -0.658517 
27 3 96.0706 97.3974 0.54609 0.415729 
33 3 95.9436 97.7437 2.99954 0.348615 
6 2 0.64266 0.57559 99.2467 2.00186 
14 4 1.84023 2.08882 98.8519 -1.00892 
15 2 3.68618 2.71423 99.2358 2.02113 
42 4 4.69582 2.91089 97.573 -0.838877 
43 3 5.05284 3.52807 96.93 0.371257 
16 4 93.6974 1.76732 98.3428 -0.680345 
1 1 97.2364 0.50373 99.1976 1.30715 
3 4 96.2865 1.8573 99.2101 -0.681578 
5 4 98.733 0.87374 98.691 -0.814156 
8 1 94.7067 2.11319 99.6091 1.2015 
30 3 93.7592 2.34318 97.5726 0.345403 
10 4 1.42074 98.9765 98.4959 -1.00598 
11 2 3.08134 97.8014 98.4281 2.04072 
34 4 3.27633 97.3519 96.5224 -0.813882 
35 3 3.88152 97.644 95.8337 0.367493 
36 4 4.62207 98.9366 98.7751 -0.853778 
37 3 4.81737 99.6974 99.3585 0.411426 
38 4 3.02671 95.9249 99.204 -0.814628 
39 3 3.11436 95.1181 98.6848 0.353107 
25 3 93.6111 99.6328 98.3972 0.385508 
4 4 96.5302 99.3435 98.2809 -0.687025 
9 1 95.3481 98.2028 98.5344 1.21925 
22 4 95.0261 97.4787 97.0997 -0.628217 
23 4 93.9592 98.9795 99.0264 -0.693828 
24 4 95.7801 97.113 99.6598 -0.650046 
26 3 95.7877 97.1319 96.6225 0.359164 
ITEM: TIMESTEP
58
ITEM: NUMBER OF ATOMS
51
ITEM: BOX BOUNDS pp pp pp
0.0000000000000000e+00 1.0000000000000000e+02
0.0000000000000000e+00 1.0000000000000000e+02
0.0000000000000000e+00 1.0000000000000000e+02
ITEM: ATOMS id type x y z q 
12 4 0.874176 0.194513 1.12378 -1.12078 
40 4 4.32337 1.31036 0.20918 -0.956817 
41 3 4.39483 1.03249 1.11321 0.407626 
44 4 3.56469 4.31545 0.15535 -0.895006 
45 3 3.00629 4.92843 0.570983 0.376566 
48 4 3.58327 0.241412 2.68607 -0.938674 
49 3 4.00604 0.502222 3.47562 0.373122 
17 4 94.5345 3.63046 -0.0584914 -0.646224 
18 4 94.2371 1.07754 0.779256 -0.712752 
20 4 95.9706 0.560904 2.89459 -0.643724 
28 3 95.3717 0.900588 2.2153 0.404051 
29 3 94.0774 0.168461 0.452568 0.378181 
31 3 95.3352 4.03909 0.262598 0.356676 
32 3 99.2733 -0.0912865 2.53067 0.346273 
13 2 2.10575 99.1589 2.10675 2.12502 
46 4 2.69973 97.7841 0.856245 -1.06802 
47 3 2.86745 96.8419 0.866956 0.380877 
50 4 1.10309 98.482 3.58557 -0.886354 
51 3 0.241527 98.5572 3.93489 0.43273 
2 4 97.4931 99.85 0.731594 -0.766856 
7 1 97.1225 99.5282 2.28284 1.17934 
19 4 96.5002 97.9693 2.33834 -0.682466 
21 4 98.5615 99.6562 3.12402 -0.654017 
27 3 96.1292 97.5599 0.503207 0.408973 
33 3 95.9389 97.8256 3.10191 0.356 
6 2 0.580959 0.640621 99.3018 2.20445 
14 4 1.73944 2.08037 99.0464 -1.1383 
15 2 3.47799 2.68421 99.1849 2.19503 
42 4 4.37802 2.93204 97.5279 -0.887367 
43 3 5.01547 3.48557 97.14 0.387041 
16 4 93.951 1.67005 98.2141 -0.712147 
1 1 97.2466 0.480973 99.2523 1.32076 
3 4 96.3592 1.85009 99.3728 -0.707821 
5 4 98.7538 0.828221 98.7261 -0.870051 
8 1 94.7718 2.05252 99.5764 1.2147 
30 3 93.7491 2.43101 97.6654 0.359908 
10 4 1.55025 99.1285 98.6569 -1.07462 
11 2 2.96361 97.8193 98.6299 2.19044 
34 4 3.18971 97.4799 96.7095 -0.829872 
35 3 3.79352 97.6527 96.0267 0.390677 
36 4 4.55081 98.9228 98.9057 -0.860152 
37 3 4.80543 99.6899 99.3927 0.426058 
38 4 2.98485 95.9136 99.1031 -0.867873 
39 3 3.10742 95.0872 98.6993 0.384624 
25 3 93.8348 99.8406 98.5333 0.400653 
4 4 96.5506 99.3801 98.2731 -0.712815 
9 1 95.3995 98.2921 98.5235 1.2461 
22 4 95.1081 97.5394 97.0985 -0.619786 
23 4 94.0193 99.0079 99.0192 -0.705995 
24 4 95.8917 97.2054 99.6371 -0.651232 
26 3 95.882 97.1453 96.7076 0.363829 
