ITEM: TIMESTEP
0
ITEM: NUMBER OF ATOMS
51
ITEM: BOX BOUNDS pp pp pp
0.0000000000000000e+00 1.0000000000000000e+02
0.0000000000000000e+00 1.0000000000000000e+02
0.0000000000000000e+00 1.0000000000000000e+02
ITEM: ATOMS id type x y z q 
12 4 1.78961 0.32906 0.01788 -1.0135 
48 4 5.01474 0.56162 0.20561 -0.882 
49 3 5.66823 0.83989 0.85654 0.353354 
17 4 94.5531 3.68028 0.05984 -0.635799 
18 4 94.2328 1.08545 0.81639 -0.701381 
20 4 95.9601 0.60192 2.98173 -0.656161 
28 3 95.2189 0.84544 2.39047 0.400678 
29 3 93.956 0.21773 0.45311 0.389093 
31 3 95.3715 4.12226 0.31086 0.351823 
32 3 99.1638 0.10482 2.53314 0.333673 
13 2 3.45423 99.3075 0.28912 1.96853 
50 4 3.28886 98.4656 2.02994 -0.83151 
51 3 2.50218 98.5065 2.60325 0.352081 
2 4 97.3559 99.9372 0.73154 -0.727852 
7 1 97.0482 99.5993 2.29443 1.21638 
19 4 96.494 98.027 2.26095 -0.689801 
21 4 98.4873 99.6881 3.10045 -0.610731 
27 3 96.0706 97.3974 0.54609 0.416446 
33 3 95.9436 97.7437 2.99954 0.344968 
35 3 2.30103 98.1496 93.6959 0.36704 
6 2 0.70784 0.70673 98.3495 2.00316 
14 4 1.52874 2.32059 97.5739 -1.00883 
15 2 3.32019 3.07453 97.1637 2.0234 
37 3 4.55867 0.15232 96.5957 0.411795 
40 4 4.60549 1.6511 97.6906 -0.901599 
41 3 4.96681 1.40037 98.5668 0.394536 
42 4 3.49482 3.40367 95.2442 -0.839664 
43 3 3.50215 4.06754 94.5507 0.370216 
44 4 3.57945 4.67943 98.2375 -0.863363 
45 3 3.28857 5.35175 98.8565 0.371319 
16 4 93.6974 1.76732 98.3428 -0.679562 
1 1 97.2364 0.50373 99.1976 1.32717 
3 4 96.2865 1.8573 99.2101 -0.685568 
5 4 98.733 0.87374 98.691 -0.831019 
8 1 94.7067 2.11319 99.6091 1.19773 
30 3 93.7592 2.34318 97.5726 0.345455 
10 4 1.17047 99.1985 97.2371 -1.00829 
11 2 2.69954 98.1588 96.3862 2.0414 
34 4 2.07229 97.7888 94.5581 -0.815671 
36 4 4.17213 99.3982 96.1065 -0.852888 
38 4 3.092 96.2593 96.9893 -0.81584 
39 3 2.99029 95.4792 96.433 0.351953 
46 4 3.53418 98.0238 98.7569 -0.971495 
47 3 3.60461 97.0577 98.6201 0.396075 
25 3 93.6111 99.6328 98.3972 0.385664 
4 4 96.5302 99.3435 98.2809 -0.695829 
9 1 95.3481 98.2028 98.5344 1.21862 
22 4 95.0261 97.4787 97.0997 -0.627249 
23 4 93.9592 98.9795 99.0264 -0.695427 
24 4 95.7801 97.113 99.6598 -0.651103 
26 3 95.7877 97.1319 96.6225 0.359593 
ITEM: TIMESTEP
684
ITEM: NUMBER OF ATOMS
51
ITEM: BOX BOUNDS pp pp pp
0.0000000000000000e+00 1.0000000000000000e+02
0.0000000000000000e+00 1.0000000000000000e+02
0.0000000000000000e+00 1.0000000000000000e+02
ITEM: ATOMS id type x y z q 
12 4 1.66574 0.326124 99.7872 -1.08997 
48 4 4.65241 0.382864 99.8475 -0.931409 
49 3 5.5346 0.521819 0.127145 0.365504 
17 4 94.7306 3.56961 100.011 -0.652833 
18 4 94.3412 0.991177 0.722194 -0.712161 
20 4 96.5013 0.930755 2.49188 -0.673945 
28 3 95.7292 1.09466 1.9262 0.407811 
29 3 94.1851 0.0959606 0.347344 0.380881 
31 3 95.5271 3.97729 0.341723 0.358006 
32 3 98.5703 0.0912324 3.7402 0.353738 
13 2 3.13935 99.2544 0.260878 2.1284 
50 4 3.13511 98.5435 2.03577 -0.894615 
51 3 2.55694 98.4187 2.75212 0.386451 
2 4 97.7734 99.5165 0.574295 -0.739008 
7 1 97.265 99.5467 2.08969 1.22639 
19 4 96.2409 98.2931 2.28716 -0.703736 
21 4 98.513 99.3593 3.12995 -0.663088 
27 3 96.0903 97.6925 0.541183 0.405107 
33 3 96.616 97.5954 2.83746 0.356396 
35 3 2.61515 98.2646 93.9794 0.383824 
6 2 0.659441 0.809183 98.2506 2.22147 
14 4 1.36468 2.41163 97.613 -1.13562 
15 2 2.93315 3.26487 97.1365 2.19214 
37 3 4.48165 0.183783 96.8426 0.421597 
40 4 4.21093 1.89502 97.5413 -0.947847 
41 3 4.59606 1.47839 98.3059 0.409682 
42 4 3.09125 3.70506 95.2925 -0.892348 
43 3 3.74373 3.85681 94.6492 0.381058 
44 4 3.20807 4.78906 98.2414 -0.89352 
45 3 2.72552 5.39949 98.7482 0.376552 
16 4 94.1895 1.70968 98.1822 -0.713387 
1 1 97.3544 0.320936 99.2286 1.34348 
3 4 96.5427 1.71128 99.5233 -0.717712 
5 4 98.7734 0.702566 98.5374 -0.882454 
8 1 94.9598 2.00258 99.5949 1.20974 
30 3 93.5835 2.41724 97.943 0.353578 
10 4 1.39538 99.3764 97.2183 -1.06361 
11 2 2.73495 98.0777 96.7103 2.18627 
34 4 2.34751 97.9047 94.7907 -0.830356 
36 4 4.25676 99.3013 96.5873 -0.864074 
38 4 2.84122 96.1346 96.9867 -0.863698 
39 3 2.76314 95.3485 96.5003 0.382305 
46 4 3.10131 97.8363 98.9082 -1.06015 
47 3 3.17068 96.884 98.8786 0.381376 
25 3 93.9431 99.8834 98.424 0.391703 
4 4 96.5295 99.3356 98.2242 -0.730169 
9 1 95.3946 98.233 98.5005 1.24721 
22 4 95.2209 97.4003 97.1001 -0.61736 
23 4 94.0068 99.0106 98.8641 -0.700871 
24 4 95.8285 97.2425 99.7233 -0.63864 
26 3 95.8899 97.6307 96.4599 0.361903 
