ITEM: TIMESTEP
0
ITEM: NUMBER OF ATOMS
51
ITEM: BOX BOUNDS pp pp pp
0.0000000000000000e+00 1.0000000000000000e+02
0.0000000000000000e+00 1.0000000000000000e+02
0.0000000000000000e+00 1.0000000000000000e+02
ITEM: ATOMS id type x y z q 
12 4 1.14428 0.25374 0.97165 -1.02591 
41 3 4.67816 1.11465 0.6275 0.393934 
45 3 3.22762 5.14626 0.23275 0.371283 
48 4 4.13469 0.35002 2.21223 -0.882781 
49 3 4.55169 0.6281 3.03502 0.353739 
17 4 94.5531 3.68028 0.05984 -0.63635 
18 4 94.2328 1.08545 0.81639 -0.700142 
20 4 95.9601 0.60192 2.98173 -0.652269 
28 3 95.2189 0.84544 2.39047 0.402424 
29 3 93.956 0.21773 0.45311 0.389902 
31 3 95.3715 4.12226 0.31086 0.353111 
32 3 99.1638 0.10482 2.53314 0.332494 
13 2 2.56484 99.1721 1.80845 1.97135 
46 4 3.07205 97.8178 0.42629 -0.972041 
47 3 3.1282 96.8443 0.34776 0.397006 
50 4 1.78654 98.4185 3.41872 -0.83039 
51 3 0.85848 98.5206 3.69713 0.375969 
2 4 97.3559 99.9372 0.73154 -0.742584 
7 1 97.0482 99.5993 2.29443 1.21796 
19 4 96.494 98.027 2.26095 -0.692351 
21 4 98.4873 99.6881 3.10045 -0.634307 
27 3 96.0706 97.3974 0.54609 0.415968 
33 3 95.9436 97.7437 2.99954 0.348042 
6 2 0.69694 0.60314 99.0289 2.00155 
14 4 1.81875 2.14169 98.5246 -1.00868 
15 2 3.68534 2.79526 98.7111 2.02167 
40 4 4.64111 1.34117 99.6743 -0.901659 
42 4 4.50191 3.02858 96.9498 -0.838893 
43 3 4.77564 3.65922 96.2796 0.371086 
44 4 3.66737 4.43413 99.7645 -0.863068 
16 4 93.6974 1.76732 98.3428 -0.680124 
1 1 97.2364 0.50373 99.1976 1.31429 
3 4 96.2865 1.8573 99.2101 -0.682403 
5 4 98.733 0.87374 98.691 -0.819304 
8 1 94.7067 2.11319 99.6091 1.2002 
30 3 93.7592 2.34318 97.5726 0.34558 
10 4 1.4134 99.0267 98.1759 -1.00648 
11 2 3.07534 97.882 97.9101 2.04079 
34 4 3.06609 97.4576 95.9887 -0.814101 
35 3 3.58671 97.7682 95.2414 0.367549 
36 4 4.62621 99.0402 98.1001 -0.853434 
37 3 4.87227 99.7977 98.6685 0.411608 
38 4 3.13735 95.9962 98.6624 -0.814902 
39 3 3.18031 95.197 98.1261 0.35283 
25 3 93.6111 99.6328 98.3972 0.385599 
4 4 96.5302 99.3435 98.2809 -0.689198 
9 1 95.3481 98.2028 98.5344 1.21874 
22 4 95.0261 97.4787 97.0997 -0.628036 
23 4 93.9592 98.9795 99.0264 -0.694348 
24 4 95.7801 97.113 99.6598 -0.650259 
26 3 95.7877 97.1319 96.6225 0.359359 
ITEM: TIMESTEP
18
ITEM: NUMBER OF ATOMS
51
ITEM: BOX BOUNDS pp pp pp
0.0000000000000000e+00 1.0000000000000000e+02
0.0000000000000000e+00 1.0000000000000000e+02
0.0000000000000000e+00 1.0000000000000000e+02
ITEM: ATOMS id type x y z q 
12 4 1.24086 0.191382 0.830506 -1.11199 
41 3 4.6819 1.13385 0.548893 0.406697 
45 3 3.19335 5.01594 0.149773 0.368326 
48 4 4.06641 0.30555 2.20427 -0.925406 
49 3 4.51719 0.598321 2.97856 0.36814 
17 4 94.5629 3.6437 0.0466692 -0.648639 
18 4 94.2465 1.08296 0.807111 -0.711607 
20 4 95.936 0.584868 2.96201 -0.651683 
28 3 95.2336 0.861403 2.35357 0.40842 
29 3 93.9808 0.222205 0.420854 0.38718 
31 3 95.3608 4.09179 0.300016 0.355002 
32 3 99.194 0.0915921 2.53508 0.332366 
13 2 2.55548 99.1973 1.71551 2.10968 
46 4 3.00746 97.8682 0.347359 -1.04191 
47 3 3.13999 96.9169 0.318544 0.380309 
50 4 1.72575 98.4885 3.30997 -0.877772 
51 3 0.900866 98.4846 3.74338 0.406602 
2 4 97.3859 99.9566 0.753383 -0.743481 
7 1 97.0566 99.5686 2.29042 1.21641 
19 4 96.4944 98.0147 2.28325 -0.694409 
21 4 98.507 99.6931 3.08146 -0.637515 
27 3 96.0617 97.4264 0.498106 0.410884 
33 3 95.9398 97.7692 3.03193 0.348175 
6 2 0.715175 0.614573 99.0469 2.16436 
14 4 1.90091 2.03349 98.6287 -1.11794 
15 2 3.60414 2.80553 98.708 2.16743 
40 4 4.52563 1.41873 99.657 -0.929691 
42 4 4.45371 2.99543 97.0045 -0.876702 
43 3 4.72671 3.64334 96.3957 0.377757 
44 4 3.73434 4.39836 99.7321 -0.904814 
16 4 93.7481 1.7431 98.3383 -0.698625 
1 1 97.2201 0.489251 99.2028 1.29004 
3 4 96.279 1.84602 99.2101 -0.69725 
5 4 98.7927 0.865813 98.6902 -0.844956 
8 1 94.7258 2.08712 99.6064 1.23012 
30 3 93.7737 2.35159 97.6083 0.351224 
10 4 1.51684 99.0895 98.2586 -1.07769 
11 2 3.00961 97.9144 98.0383 2.19601 
34 4 3.08428 97.5126 96.1037 -0.827954 
35 3 3.54698 97.7549 95.3411 0.390662 
36 4 4.55709 99.0567 98.1429 -0.876208 
37 3 4.86598 99.773 98.6474 0.428228 
38 4 3.12708 96.0362 98.5679 -0.87225 
39 3 3.17975 95.1985 98.1668 0.381789 
25 3 93.6497 99.6631 98.4334 0.387609 
4 4 96.5269 99.3258 98.3002 -0.720135 
9 1 95.36 98.2619 98.5396 1.25367 
22 4 95.0401 97.5025 97.1214 -0.629819 
23 4 93.9754 98.971 99.0271 -0.710654 
24 4 95.7933 97.1217 99.6294 -0.6493 
26 3 95.7865 97.1444 96.6489 0.361303 
