ITEM: TIMESTEP
0
ITEM: NUMBER OF ATOMS
51
ITEM: BOX BOUNDS pp pp pp
0.0000000000000000e+00 1.0000000000000000e+02
0.0000000000000000e+00 1.0000000000000000e+02
0.0000000000000000e+00 1.0000000000000000e+02
ITEM: ATOMS id type x y z q 
12 4 0.44843 0.24497 1.53037 -1.0598 
40 4 4.20498 1.16149 1.15384 -0.901961 
41 3 3.98613 0.96616 2.08939 0.393742 
44 4 3.37607 4.28873 0.91731 -0.863282 
45 3 2.86219 5.03164 1.23945 0.370802 
48 4 3.02123 0.27561 3.49776 -0.882457 
49 3 3.22462 0.56619 4.39351 0.354938 
17 4 94.5531 3.68028 0.05984 -0.636191 
18 4 94.2328 1.08545 0.81639 -0.6987 
20 4 95.9601 0.60192 2.98173 -0.652521 
28 3 95.2189 0.84544 2.39047 0.404678 
29 3 93.956 0.21773 0.45311 0.391275 
31 3 95.3715 4.12226 0.31086 0.353487 
32 3 99.1638 0.10482 2.53314 0.386549 
13 2 1.55807 99.1419 2.7304 1.97719 
37 3 4.61939 99.5776 0.27819 0.411093 
46 4 2.34388 97.7242 1.55798 -0.972181 
47 3 2.37596 96.7472 1.51943 0.397495 
50 4 0.36037 98.4717 4.10259 -0.830758 
2 4 97.3559 99.9372 0.73154 -0.754791 
7 1 97.0482 99.5993 2.29443 1.22046 
19 4 96.494 98.027 2.26095 -0.700837 
21 4 98.4873 99.6881 3.10045 -0.717403 
27 3 96.0706 97.3974 0.54609 0.41544 
33 3 95.9436 97.7437 2.99954 0.347312 
51 3 99.3973 98.6165 4.12972 0.440736 
6 2 0.53062 0.5443 99.5303 2.00479 
14 4 1.81005 2.02359 99.2966 -1.00962 
15 2 3.59273 2.61557 99.9429 2.02051 
42 4 4.84355 2.75967 98.4469 -0.839168 
43 3 5.30734 3.35703 97.8554 0.371108 
16 4 93.6974 1.76732 98.3428 -0.680592 
1 1 97.2364 0.50373 99.1976 1.29483 
3 4 96.2865 1.8573 99.2101 -0.680596 
5 4 98.733 0.87374 98.691 -0.80644 
8 1 94.7067 2.11319 99.6091 1.20355 
30 3 93.7592 2.34318 97.5726 0.344838 
10 4 1.37291 98.9151 98.9282 -1.00545 
11 2 2.99602 97.7031 99.127 2.04098 
34 4 3.46208 97.2146 97.2787 -0.813893 
35 3 4.17011 97.4808 96.684 0.367024 
36 4 4.49487 98.8106 99.6835 -0.854386 
38 4 2.78075 95.8428 99.9138 -0.814306 
39 3 2.92523 95.0249 99.4256 0.353408 
25 3 93.6111 99.6328 98.3972 0.385295 
4 4 96.5302 99.3435 98.2809 -0.683989 
9 1 95.3481 98.2028 98.5344 1.22023 
22 4 95.0261 97.4787 97.0997 -0.628502 
23 4 93.9592 98.9795 99.0264 -0.692861 
24 4 95.7801 97.113 99.6598 -0.6498 
26 3 95.7877 97.1319 96.6225 0.358714 
ITEM: TIMESTEP
33
ITEM: NUMBER OF ATOMS
51
ITEM: BOX BOUNDS pp pp pp
0.0000000000000000e+00 1.0000000000000000e+02
0.0000000000000000e+00 1.0000000000000000e+02
0.0000000000000000e+00 1.0000000000000000e+02
ITEM: ATOMS id type x y z q 
12 4 0.624747 0.200715 1.40227 -1.09918 
40 4 4.04995 1.17807 1.07844 -0.952209 
41 3 4.02349 0.963251 2.00804 0.409167 
44 4 3.4175 4.20945 0.838765 -0.895008 
45 3 2.81948 4.85865 1.12894 0.371598 
48 4 3.00529 0.240735 3.45442 -0.925931 
49 3 3.26579 0.559857 4.29174 0.369382 
17 4 94.5436 3.61787 -0.0216704 -0.645094 
18 4 94.2324 1.06376 0.787298 -0.715511 
20 4 95.8675 0.549066 2.93707 -0.64854 
28 3 95.2373 0.916924 2.30262 0.408818 
29 3 93.9993 0.165323 0.449691 0.386717 
31 3 95.3427 4.03948 0.288376 0.352888 
32 3 99.0986 0.158693 2.61958 0.344331 
13 2 1.61893 99.1415 2.65947 2.08008 
37 3 4.60641 99.5795 0.305122 0.426505 
46 4 2.31281 97.7217 1.45041 -1.03853 
47 3 2.42698 96.7684 1.47605 0.383582 
50 4 0.420652 98.4437 3.99657 -0.868738 
2 4 97.4473 99.9626 0.756234 -0.777206 
7 1 97.0213 99.5644 2.27422 1.1875 
19 4 96.463 97.9813 2.2944 -0.693013 
21 4 98.4161 99.7383 3.16535 -0.679537 
27 3 96.0497 97.4509 0.514112 0.409653 
33 3 95.9286 97.7803 3.06966 0.351871 
51 3 99.5136 98.5359 4.22783 0.446039 
6 2 0.497727 0.589939 99.5319 2.17195 
14 4 1.75247 1.98499 99.4133 -1.12246 
15 2 3.44943 2.55586 99.8933 2.18174 
42 4 4.66024 2.72979 98.4303 -0.880751 
43 3 5.21478 3.36152 98.033 0.383886 
16 4 93.8672 1.64682 98.2667 -0.710637 
1 1 97.2372 0.493287 99.2346 1.29591 
3 4 96.319 1.84646 99.2584 -0.705674 
5 4 98.7526 0.864567 98.6938 -0.843064 
8 1 94.7617 2.04223 99.583 1.22509 
30 3 93.7615 2.35839 97.6277 0.355232 
10 4 1.47111 99.0248 99.0256 -1.06363 
11 2 2.87689 97.7348 99.2585 2.19425 
34 4 3.40352 97.3118 97.4199 -0.831604 
35 3 4.08898 97.4883 96.8206 0.390401 
36 4 4.40431 98.8434 99.7424 -0.863599 
38 4 2.77815 95.8552 99.8009 -0.871355 
39 3 2.91575 95.0088 99.4458 0.384389 
25 3 93.7502 99.8178 98.472 0.403906 
4 4 96.5792 99.3363 98.2903 -0.705365 
9 1 95.377 98.297 98.5361 1.24531 
22 4 95.0558 97.5632 97.1096 -0.624142 
23 4 93.9969 99.0324 99.0179 -0.710439 
24 4 95.8464 97.1659 99.6145 -0.653287 
26 3 95.8111 97.1533 96.7004 0.364311 
