ITEM: TIMESTEP
0
ITEM: NUMBER OF ATOMS
51
ITEM: BOX BOUNDS pp pp pp
0.0000000000000000e+00 1.0000000000000000e+02
0.0000000000000000e+00 1.0000000000000000e+02
0.0000000000000000e+00 1.0000000000000000e+02
ITEM: ATOMS id type x y z q 
12 4 0.27885 0.24893 1.62699 -1.07577 
15 2 3.52923 2.582 0.20631 2.02033 
40 4 4.05875 1.1307 1.45891 -0.902006 
41 3 3.78542 0.9434 2.38168 0.393807 
44 4 3.27258 4.26332 1.15671 -0.863378 
45 3 2.7479 5.01271 1.44463 0.370622 
48 4 2.73601 0.27042 3.73713 -0.882745 
49 3 2.89084 0.56512 4.64121 0.35527 
17 4 94.5531 3.68028 0.05984 -0.636091 
18 4 94.2328 1.08545 0.81639 -0.69829 
20 4 95.9601 0.60192 2.98173 -0.654065 
28 3 95.2189 0.84544 2.39047 0.405379 
29 3 93.956 0.21773 0.45311 0.391659 
31 3 95.3715 4.12226 0.31086 0.353457 
32 3 99.1638 0.10482 2.53314 0.411978 
13 2 1.30869 99.1443 2.89479 1.98051 
36 4 4.41059 98.7678 0.02169 -0.854661 
37 3 4.50801 99.5376 0.61784 0.410938 
38 4 2.6597 95.8164 0.17231 -0.814191 
46 4 2.14707 97.7122 1.77753 -0.972563 
47 3 2.17255 96.7348 1.74679 0.397493 
50 4 0.02911 98.4934 4.20078 -0.824365 
2 4 97.3559 99.9372 0.73154 -0.756643 
7 1 97.0482 99.5993 2.29443 1.21954 
19 4 96.494 98.027 2.26095 -0.704265 
21 4 98.4873 99.6881 3.10045 -0.74571 
27 3 96.0706 97.3974 0.54609 0.415421 
33 3 95.9436 97.7437 2.99954 0.345723 
51 3 99.0674 98.6466 4.17227 0.456906 
6 2 0.47707 0.53441 99.6331 2.00718 
14 4 1.78087 2.00111 99.4634 -1.01006 
42 4 4.86416 2.70554 98.783 -0.83938 
43 3 5.36609 3.295 98.2152 0.37094 
16 4 93.6974 1.76732 98.3428 -0.680657 
1 1 97.2364 0.50373 99.1976 1.28927 
3 4 96.2865 1.8573 99.2101 -0.680236 
5 4 98.733 0.87374 98.691 -0.803314 
8 1 94.7067 2.11319 99.6091 1.20441 
30 3 93.7592 2.34318 97.5726 0.344548 
10 4 1.33758 98.8941 99.0897 -1.00532 
11 2 2.93589 97.6696 99.3877 2.0412 
34 4 3.50171 97.165 97.5718 -0.81397 
35 3 4.2447 97.4212 97.0167 0.366735 
39 3 2.82435 94.9941 99.698 0.353502 
25 3 93.6111 99.6328 98.3972 0.385213 
4 4 96.5302 99.3435 98.2809 -0.682791 
9 1 95.3481 98.2028 98.5344 1.22067 
22 4 95.0261 97.4787 97.0997 -0.628616 
23 4 93.9592 98.9795 99.0264 -0.692409 
24 4 95.7801 97.113 99.6598 -0.649693 
26 3 95.7877 97.1319 96.6225 0.358494 
ITEM: TIMESTEP
503
ITEM: NUMBER OF ATOMS
51
ITEM: BOX BOUNDS pp pp pp
0.0000000000000000e+00 1.0000000000000000e+02
0.0000000000000000e+00 1.0000000000000000e+02
0.0000000000000000e+00 1.0000000000000000e+02
ITEM: ATOMS id type x y z q 
12 4 0.704566 0.218975 1.66534 -1.09037 
15 2 3.21346 2.74619 0.114207 2.19371 
40 4 3.96326 1.27562 1.09122 -0.94933 
41 3 3.9261 0.902212 1.96622 0.40981 
44 4 2.88522 4.23065 1.25836 -0.892203 
45 3 2.60783 5.11593 1.21708 0.381767 
48 4 3.18262 99.9028 3.42242 -0.927162 
49 3 3.6558 0.103969 4.20001 0.368127 
17 4 94.4569 3.5713 99.8847 -0.647875 
18 4 93.9561 0.953338 0.374057 -0.703335 
20 4 95.5144 0.333195 2.5904 -0.64519 
28 3 95.1195 0.634224 1.75806 0.400122 
29 3 93.851 0.0899053 99.9135 0.381196 
31 3 95.1667 3.99439 0.361706 0.362397 
32 3 98.8996 0.385345 3.13269 0.333485 
13 2 1.5593 99.0008 2.86346 2.07717 
36 4 4.19286 98.6862 0.158573 -0.865007 
37 3 4.34011 99.5319 0.557302 0.420254 
38 4 2.46049 95.6724 99.7592 -0.861864 
46 4 2.02691 97.4664 1.67507 -1.03458 
47 3 1.99869 96.5147 1.71736 0.375277 
50 4 0.161251 98.5567 4.11015 -0.881913 
2 4 97.6599 99.7517 0.983543 -0.785876 
7 1 96.9777 99.5754 2.45131 1.16548 
19 4 96.704 97.9352 2.63548 -0.672439 
21 4 98.0786 0.14413 3.57179 -0.65318 
27 3 95.9766 97.8269 0.862593 0.38924 
33 3 95.8975 97.7521 3.12509 0.365356 
51 3 99.2492 98.7551 4.24044 0.441587 
6 2 0.461447 0.576681 99.8094 2.2103 
14 4 1.61288 2.02088 99.5478 -1.11667 
42 4 4.44838 3.19409 98.7379 -0.891065 
43 3 5.30779 2.98319 98.4555 0.38461 
16 4 94.4252 1.78983 97.9054 -0.709663 
1 1 97.2764 0.410841 99.5447 1.28834 
3 4 96.3692 1.75229 99.7717 -0.715567 
5 4 98.7448 0.840232 98.9749 -0.847255 
8 1 94.8104 2.02448 99.4787 1.21193 
30 3 93.8183 2.45961 97.5713 0.355776 
10 4 1.36802 98.9718 99.3173 -1.06574 
11 2 2.70319 97.599 99.5116 2.19087 
34 4 3.3385 97.4085 97.6641 -0.827355 
35 3 4.05218 97.6659 97.1311 0.386439 
39 3 2.54228 94.8843 99.2775 0.388398 
25 3 94.1788 -0.0456579 97.9669 0.391868 
4 4 96.6193 99.2872 98.5741 -0.740208 
9 1 95.3956 98.2706 98.7252 1.24537 
22 4 95.6807 97.1308 97.5902 -0.613658 
23 4 94.0198 99.081 98.3869 -0.687819 
24 4 95.2896 97.6275 0.217049 -0.658751 
26 3 96.4036 97.3802 97.0184 0.365188 
