ITEM: TIMESTEP
0
ITEM: NUMBER OF ATOMS
51
ITEM: BOX BOUNDS pp pp pp
0.0000000000000000e+00 1.0000000000000000e+02
0.0000000000000000e+00 1.0000000000000000e+02
0.0000000000000000e+00 1.0000000000000000e+02
ITEM: ATOMS id type x y z q 
12 4 0.27885 0.24893 1.62699 -1.07577 
15 2 3.52923 2.582 0.20631 2.02033 
40 4 4.05875 1.1307 1.45891 -0.902006 
41 3 3.78542 0.9434 2.38168 0.393807 
44 4 3.27258 4.26332 1.15671 -0.863378 
45 3 2.7479 5.01271 1.44463 0.370622 
48 4 2.73601 0.27042 3.73713 -0.882745 
49 3 2.89084 0.56512 4.64121 0.35527 
17 4 94.5531 3.68028 0.05984 -0.636091 
18 4 94.2328 1.08545 0.81639 -0.69829 
20 4 95.9601 0.60192 2.98173 -0.654065 
28 3 95.2189 0.84544 2.39047 0.405379 
29 3 93.956 0.21773 0.45311 0.391659 
31 3 95.3715 4.12226 0.31086 0.353457 
32 3 99.1638 0.10482 2.53314 0.411978 
13 2 1.30869 99.1443 2.89479 1.98051 
36 4 4.41059 98.7678 0.02169 -0.854661 
37 3 4.50801 99.5376 0.61784 0.410938 
38 4 2.6597 95.8164 0.17231 -0.814191 
46 4 2.14707 97.7122 1.77753 -0.972563 
47 3 2.17255 96.7348 1.74679 0.397493 
50 4 0.02911 98.4934 4.20078 -0.824365 
2 4 97.3559 99.9372 0.73154 -0.756643 
7 1 97.0482 99.5993 2.29443 1.21954 
19 4 96.494 98.027 2.26095 -0.704265 
21 4 98.4873 99.6881 3.10045 -0.74571 
27 3 96.0706 97.3974 0.54609 0.415421 
33 3 95.9436 97.7437 2.99954 0.345723 
51 3 99.0674 98.6466 4.17227 0.456906 
6 2 0.47707 0.53441 99.6331 2.00718 
14 4 1.78087 2.00111 99.4634 -1.01006 
42 4 4.86416 2.70554 98.783 -0.83938 
43 3 5.36609 3.295 98.2152 0.37094 
16 4 93.6974 1.76732 98.3428 -0.680657 
1 1 97.2364 0.50373 99.1976 1.28927 
3 4 96.2865 1.8573 99.2101 -0.680236 
5 4 98.733 0.87374 98.691 -0.803314 
8 1 94.7067 2.11319 99.6091 1.20441 
30 3 93.7592 2.34318 97.5726 0.344548 
10 4 1.33758 98.8941 99.0897 -1.00532 
11 2 2.93589 97.6696 99.3877 2.0412 
34 4 3.50171 97.165 97.5718 -0.81397 
35 3 4.2447 97.4212 97.0167 0.366735 
39 3 2.82435 94.9941 99.698 0.353502 
25 3 93.6111 99.6328 98.3972 0.385213 
4 4 96.5302 99.3435 98.2809 -0.682791 
9 1 95.3481 98.2028 98.5344 1.22067 
22 4 95.0261 97.4787 97.0997 -0.628616 
23 4 93.9592 98.9795 99.0264 -0.692409 
24 4 95.7801 97.113 99.6598 -0.649693 
26 3 95.7877 97.1319 96.6225 0.358494 
ITEM: TIMESTEP
396
ITEM: NUMBER OF ATOMS
51
ITEM: BOX BOUNDS pp pp pp
0.0000000000000000e+00 1.0000000000000000e+02
0.0000000000000000e+00 1.0000000000000000e+02
0.0000000000000000e+00 1.0000000000000000e+02
ITEM: ATOMS id type x y z q 
12 4 0.629793 0.169693 1.72654 -1.09337 
15 2 3.20881 2.75231 0.132319 2.19547 
40 4 3.9834 1.28155 1.08691 -0.950357 
41 3 3.95391 0.897197 1.95733 0.411008 
44 4 2.95004 4.25327 1.27247 -0.8915 
45 3 2.59687 5.11196 1.25318 0.381528 
48 4 3.19312 99.9171 3.40515 -0.929106 
49 3 3.71128 0.0931533 4.16058 0.366527 
17 4 94.462 3.57188 99.861 -0.649458 
18 4 93.9603 0.954236 0.393404 -0.70501 
20 4 95.5521 0.418101 2.61398 -0.646772 
28 3 95.1383 0.700238 1.78443 0.401388 
29 3 93.8314 0.0989132 -0.0726825 0.379899 
31 3 95.1708 3.99587 0.338845 0.361979 
32 3 98.9711 0.229239 3.03852 0.343373 
13 2 1.56563 98.9863 2.9053 2.07405 
36 4 4.22119 98.6984 0.138871 -0.864315 
37 3 4.37656 99.5475 0.526283 0.421227 
38 4 2.46261 95.6925 99.8224 -0.865111 
46 4 2.05611 97.4869 1.68479 -1.03614 
47 3 2.02783 96.5326 1.68745 0.376533 
50 4 0.200196 98.5558 4.19004 -0.883452 
2 4 97.5943 99.6701 0.95064 -0.786858 
7 1 96.9632 99.5719 2.44724 1.1718 
19 4 96.5971 97.9569 2.65721 -0.669342 
21 4 98.1408 0.093236 3.50814 -0.658192 
27 3 96.0196 97.8316 0.820547 0.394681 
33 3 95.7734 97.8241 3.13144 0.364499 
51 3 99.2979 98.7721 4.34632 0.442025 
6 2 0.447877 0.567644 99.8705 2.20981 
14 4 1.57913 2.03311 99.6512 -1.12071 
42 4 4.37537 3.1791 98.6914 -0.891334 
43 3 5.24333 3.01461 98.4043 0.383976 
16 4 94.4058 1.76054 97.9145 -0.712201 
1 1 97.267 0.395396 99.5303 1.28718 
3 4 96.3657 1.73972 99.7771 -0.715496 
5 4 98.749 0.824496 98.9982 -0.849559 
8 1 94.8062 2.0163 99.4801 1.21115 
30 3 93.8813 2.47806 97.5462 0.356952 
10 4 1.38882 98.9929 99.3497 -1.06716 
11 2 2.71828 97.612 99.5234 2.19195 
34 4 3.30768 97.388 97.6665 -0.829803 
35 3 4.00013 97.6476 97.1072 0.386854 
39 3 2.52291 94.892 99.3573 0.387697 
25 3 94.1226 99.9269 98.0058 0.392516 
4 4 96.5983 99.3126 98.5159 -0.733428 
9 1 95.4024 98.2595 98.6811 1.24458 
22 4 95.6805 97.1738 97.4903 -0.612287 
23 4 93.9963 99.0489 98.4231 -0.689013 
24 4 95.3797 97.5596 0.152284 -0.654983 
26 3 96.4043 97.4536 96.9335 0.366294 
