ITEM: TIMESTEP
0
ITEM: NUMBER OF ATOMS
51
ITEM: BOX BOUNDS pp pp pp
0.0000000000000000e+00 1.0000000000000000e+02
0.0000000000000000e+00 1.0000000000000000e+02
0.0000000000000000e+00 1.0000000000000000e+02
ITEM: ATOMS id type x y z q 
12 4 0.70822 0.24301 1.35573 -1.04237 
40 4 4.40209 1.21741 0.64914 -0.901877 
41 3 4.272 1.01006 1.59855 0.393705 
44 4 3.51272 4.33441 0.5226 -0.863149 
45 3 3.02027 5.0667 0.89811 0.37105 
48 4 3.4488 0.29228 3.08129 -0.882492 
49 3 3.72895 0.57727 3.95792 0.354451 
17 4 94.5531 3.68028 0.05984 -0.636301 
18 4 94.2328 1.08545 0.81639 -0.699267 
20 4 95.9601 0.60192 2.98173 -0.651472 
28 3 95.2189 0.84544 2.39047 0.403741 
29 3 93.956 0.21773 0.45311 0.390713 
31 3 95.3715 4.12226 0.31086 0.353466 
32 3 99.1638 0.10482 2.53314 0.35689 
13 2 1.93738 99.1448 2.43797 1.97432 
46 4 2.63234 97.7498 1.18378 -0.972048 
47 3 2.67403 96.7738 1.13196 0.397421 
50 4 0.8788 98.4443 3.90608 -0.832601 
2 4 97.3559 99.9372 0.73154 -0.750788 
7 1 97.0482 99.5993 2.29443 1.2199 
19 4 96.494 98.027 2.26095 -0.696655 
21 4 98.4873 99.6881 3.10045 -0.677842 
27 3 96.0706 97.3974 0.54609 0.415596 
33 3 95.9436 97.7437 2.99954 0.348507 
51 3 99.9203 98.5749 4.0222 0.412143 
6 2 0.60388 0.56245 99.3598 2.00253 
14 4 1.83653 2.06228 99.0267 -1.00913 
15 2 3.66245 2.67388 99.5145 2.02087 
42 4 4.76979 2.85027 97.9127 -0.838948 
43 3 5.16965 3.45986 97.288 0.371266 
16 4 93.6974 1.76732 98.3428 -0.680451 
1 1 97.2364 0.50373 99.1976 1.30271 
3 4 96.2865 1.8573 99.2101 -0.681178 
5 4 98.733 0.87374 98.691 -0.811222 
8 1 94.7067 2.11319 99.6091 1.20226 
30 3 93.7592 2.34318 97.5726 0.345223 
10 4 1.40988 98.9514 98.6661 -1.00574 
11 2 3.06065 97.7612 98.7035 2.04076 
34 4 3.36306 97.2971 96.8153 -0.81384 
35 3 4.01033 97.5791 96.1616 0.367369 
36 4 4.58878 98.885 99.1333 -0.853998 
37 3 4.75651 99.648 99.7224 0.411306 
38 4 2.94318 95.8906 99.4866 -0.814498 
39 3 3.0537 95.0796 98.9785 0.35324 
25 3 93.6111 99.6328 98.3972 0.385435 
4 4 96.5302 99.3435 98.2809 -0.68585 
9 1 95.3481 98.2028 98.5344 1.21959 
22 4 95.0261 97.4787 97.0997 -0.628319 
23 4 93.9592 98.9795 99.0264 -0.693486 
24 4 95.7801 97.113 99.6598 -0.649949 
26 3 95.7877 97.1319 96.6225 0.359016 
ITEM: TIMESTEP
100
ITEM: NUMBER OF ATOMS
51
ITEM: BOX BOUNDS pp pp pp
0.0000000000000000e+00 1.0000000000000000e+02
0.0000000000000000e+00 1.0000000000000000e+02
0.0000000000000000e+00 1.0000000000000000e+02
ITEM: ATOMS id type x y z q 
12 4 0.773967 0.168243 1.27109 -1.10209 
40 4 4.19025 1.25556 0.485502 -0.951781 
41 3 4.24862 0.985169 1.40316 0.408348 
44 4 3.48023 4.28742 0.459926 -0.896379 
45 3 2.90987 4.94086 0.791144 0.375163 
48 4 3.40541 0.229263 2.919 -0.926083 
49 3 3.82179 0.538579 3.69634 0.36537 
17 4 94.4994 3.63576 -0.0880026 -0.650371 
18 4 94.2173 1.08839 0.767747 -0.712387 
20 4 95.9745 0.610292 2.85099 -0.647776 
28 3 95.345 0.944476 2.19326 0.405169 
29 3 94.0412 0.170244 0.444195 0.381927 
31 3 95.2579 4.08417 0.279014 0.355813 
32 3 99.2013 0.0603496 2.58462 0.346154 
13 2 1.90778 99.1088 2.38919 2.07851 
46 4 2.52253 97.6994 1.117 -1.03507 
47 3 2.67199 96.7519 1.13471 0.381208 
50 4 0.912582 98.3878 3.87149 -0.878128 
2 4 97.5213 99.8585 0.718363 -0.76934 
7 1 97.0916 99.5441 2.25284 1.18739 
19 4 96.4531 97.9928 2.31797 -0.689766 
21 4 98.5017 99.6732 3.12392 -0.662867 
27 3 96.069 97.493 0.517248 0.411401 
33 3 95.9761 97.8102 3.13263 0.352999 
51 3 100.044 98.4165 4.21012 0.4262 
6 2 0.562503 0.618527 99.4273 2.19184 
14 4 1.69379 2.08813 99.2133 -1.12827 
15 2 3.42962 2.67816 99.4466 2.18633 
42 4 4.41827 2.90933 97.8368 -0.888513 
43 3 5.13553 3.39825 97.5037 0.383168 
16 4 93.9813 1.65446 98.1956 -0.712672 
1 1 97.2495 0.494834 99.2474 1.31224 
3 4 96.367 1.86402 99.3906 -0.706292 
5 4 98.76 0.850862 98.7215 -0.847628 
8 1 94.7768 2.05833 99.5681 1.22025 
30 3 93.7209 2.41037 97.6608 0.357511 
10 4 1.5493 99.1022 98.8271 -1.07243 
11 2 2.941 97.779 98.8982 2.19588 
34 4 3.26699 97.4423 96.9948 -0.83208 
35 3 3.90172 97.619 96.3418 0.388054 
36 4 4.51929 98.8474 99.3101 -0.861178 
37 3 4.74642 99.6332 99.7935 0.428447 
38 4 2.89881 95.8775 99.367 -0.869177 
39 3 3.02832 95.0481 98.9706 0.383395 
25 3 93.8054 99.8241 98.4589 0.402715 
4 4 96.5669 99.3866 98.2661 -0.706045 
9 1 95.4092 98.3023 98.5207 1.24576 
22 4 95.1118 97.548 97.0968 -0.623047 
23 4 94.0317 99.0357 99.0081 -0.711046 
24 4 95.897 97.1923 99.6149 -0.654674 
26 3 95.8737 97.1232 96.7135 0.36386 
