ITEM: TIMESTEP
0
ITEM: NUMBER OF ATOMS
51
ITEM: BOX BOUNDS pp pp pp
0.0000000000000000e+00 1.0000000000000000e+02
0.0000000000000000e+00 1.0000000000000000e+02
0.0000000000000000e+00 1.0000000000000000e+02
ITEM: ATOMS id type x y z q 
12 4 0.79234 0.24357 1.2914 -1.0382 
40 4 4.45807 1.23807 0.47478 -0.901838 
41 3 4.35827 1.02692 1.42702 0.393716 
44 4 3.55059 4.35117 0.38661 -0.863116 
45 3 3.06651 5.07983 0.77967 0.371113 
48 4 3.58454 0.30022 2.93189 -0.882555 
49 3 3.89024 0.58362 3.80047 0.354295 
17 4 94.5531 3.68028 0.05984 -0.636327 
18 4 94.2328 1.08545 0.81639 -0.699441 
20 4 95.9601 0.60192 2.98173 -0.651421 
28 3 95.2189 0.84544 2.39047 0.403466 
29 3 93.956 0.21773 0.45311 0.39054 
31 3 95.3715 4.12226 0.31086 0.353433 
32 3 99.1638 0.10482 2.53314 0.349884 
13 2 2.05942 99.1477 2.33142 1.97366 
46 4 2.72195 97.7603 1.05154 -0.972046 
47 3 2.76661 96.7846 0.99505 0.397367 
50 4 1.04989 98.4372 3.82897 -0.832249 
51 3 0.09483 98.5627 3.97501 0.403593 
2 4 97.3559 99.9372 0.73154 -0.749302 
7 1 97.0482 99.5993 2.29443 1.2195 
19 4 96.494 98.027 2.26095 -0.695584 
21 4 98.4873 99.6881 3.10045 -0.667087 
27 3 96.0706 97.3974 0.54609 0.415664 
33 3 95.9436 97.7437 2.99954 0.348613 
6 2 0.62505 0.5692 99.3008 2.00212 
14 4 1.83978 2.07604 98.9351 -1.00902 
15 2 3.67697 2.69477 99.3686 2.021 
42 4 4.73358 2.88185 97.7341 -0.838903 
43 3 5.11113 3.49545 97.0994 0.371273 
16 4 93.6974 1.76732 98.3428 -0.680396 
1 1 97.2364 0.50373 99.1976 1.3051 
3 4 96.2865 1.8573 99.2101 -0.681385 
5 4 98.733 0.87374 98.691 -0.812775 
8 1 94.7067 2.11319 99.6091 1.20185 
30 3 93.7592 2.34318 97.5726 0.345323 
10 4 1.41684 98.9644 98.5769 -1.00586 
11 2 3.07356 97.782 98.5593 2.04073 
34 4 3.31982 97.3257 96.6611 -0.813853 
35 3 3.9453 97.613 95.9888 0.367444 
36 4 4.60891 98.9117 98.9458 -0.853881 
37 3 4.79113 99.6736 99.5321 0.411371 
38 4 2.98907 95.9083 99.3391 -0.814566 
39 3 3.08769 95.0995 98.825 0.353178 
25 3 93.6111 99.6328 98.3972 0.385476 
4 4 96.5302 99.3435 98.2809 -0.686468 
9 1 95.3481 98.2028 98.5344 1.2194 
22 4 95.0261 97.4787 97.0997 -0.628263 
23 4 93.9592 98.9795 99.0264 -0.69367 
24 4 95.7801 97.113 99.6598 -0.649999 
26 3 95.7877 97.1319 96.6225 0.359099 
ITEM: TIMESTEP
36
ITEM: NUMBER OF ATOMS
51
ITEM: BOX BOUNDS pp pp pp
0.0000000000000000e+00 1.0000000000000000e+02
0.0000000000000000e+00 1.0000000000000000e+02
0.0000000000000000e+00 1.0000000000000000e+02
ITEM: ATOMS id type x y z q 
12 4 0.872974 0.205575 1.16307 -1.12204 
40 4 4.32297 1.27932 0.41699 -0.952769 
41 3 4.3703 1.02132 1.32759 0.409506 
44 4 3.58536 4.28505 0.297 -0.89591 
45 3 3.01451 4.91107 0.676572 0.372947 
48 4 3.50155 0.238349 2.87364 -0.936489 
49 3 3.85617 0.526164 3.68708 0.374867 
17 4 94.544 3.61873 -0.00688622 -0.643167 
18 4 94.2313 1.05991 0.791143 -0.712226 
20 4 95.9059 0.549325 2.9338 -0.642988 
28 3 95.297 0.90237 2.27261 0.405997 
29 3 94.0448 0.159996 0.440556 0.381789 
31 3 95.3547 4.03171 0.281726 0.353974 
32 3 99.1924 0.0215697 2.55985 0.341548 
13 2 2.05337 99.1686 2.20431 2.12874 
46 4 2.65744 97.7986 0.95643 -1.06796 
47 3 2.8043 96.8519 0.963905 0.381046 
50 4 1.03674 98.4752 3.66748 -0.884471 
51 3 0.171262 98.5391 4.00796 0.430559 
2 4 97.4649 99.9442 0.743799 -0.770262 
7 1 97.0689 99.5584 2.27567 1.17775 
19 4 96.4881 97.9794 2.30185 -0.685965 
21 4 98.492 99.7071 3.1339 -0.652971 
27 3 96.0813 97.5035 0.498626 0.407584 
33 3 95.937 97.8051 3.06789 0.355826 
6 2 0.577478 0.619858 99.3339 2.17028 
14 4 1.80841 2.01859 99.0928 -1.12854 
15 2 3.53456 2.64291 99.3379 2.1877 
42 4 4.55232 2.84702 97.7408 -0.882314 
43 3 5.04164 3.49101 97.2834 0.385581 
16 4 93.8566 1.65856 98.2818 -0.710415 
1 1 97.2345 0.486952 99.2267 1.2996 
3 4 96.3185 1.84008 99.2701 -0.70586 
5 4 98.7436 0.872513 98.6648 -0.841279 
8 1 94.755 2.04559 99.5931 1.21864 
30 3 93.768 2.36537 97.6399 0.357649 
10 4 1.51699 99.0778 98.6993 -1.06281 
11 2 2.96716 97.8066 98.7335 2.18767 
34 4 3.27019 97.4168 96.832 -0.827785 
35 3 3.87331 97.6163 96.1556 0.391536 
36 4 4.53009 98.9406 99.0277 -0.860166 
37 3 4.77724 99.694 99.5413 0.427355 
38 4 2.97367 95.9091 99.2378 -0.867986 
39 3 3.0835 95.0748 98.8473 0.385876 
25 3 93.7711 99.8172 98.5076 0.402774 
4 4 96.5618 99.3366 98.2924 -0.714363 
9 1 95.3701 98.292 98.5335 1.24503 
22 4 95.0541 97.5515 97.1088 -0.6203 
23 4 93.9841 99.0046 99.0127 -0.707225 
24 4 95.8343 97.1738 99.6263 -0.649773 
26 3 95.8221 97.1609 96.7049 0.364216 
