ITEM: TIMESTEP
0
ITEM: NUMBER OF ATOMS
51
ITEM: BOX BOUNDS pp pp pp
0.0000000000000000e+00 1.0000000000000000e+02
0.0000000000000000e+00 1.0000000000000000e+02
0.0000000000000000e+00 1.0000000000000000e+02
ITEM: ATOMS id type x y z q 
12 4 1.5909 0.29336 0.39266 -1.0168 
48 4 4.77216 0.46992 0.9751 -0.882481 
49 3 5.34569 0.74593 1.69834 0.353414 
17 4 94.5531 3.68028 0.05984 -0.636067 
18 4 94.2328 1.08545 0.81639 -0.700999 
20 4 95.9601 0.60192 2.98173 -0.654776 
28 3 95.2189 0.84544 2.39047 0.40125 
29 3 93.956 0.21773 0.45311 0.389308 
31 3 95.3715 4.12226 0.31086 0.352298 
32 3 99.1638 0.10482 2.53314 0.330119 
13 2 3.18862 99.2458 0.88061 1.96907 
50 4 2.79282 98.4332 2.59804 -0.830693 
51 3 1.94234 98.4969 3.06903 0.35714 
2 4 97.3559 99.9372 0.73154 -0.732983 
7 1 97.0482 99.5993 2.29443 1.21681 
19 4 96.494 98.027 2.26095 -0.690288 
21 4 98.4873 99.6881 3.10045 -0.614525 
27 3 96.0706 97.3974 0.54609 0.416315 
33 3 95.9436 97.7437 2.99954 0.346079 
6 2 0.73117 0.66571 98.5986 2.00245 
14 4 1.67353 2.25259 97.9104 -1.00864 
15 2 3.51659 2.96757 97.7156 2.02275 
37 3 4.75727 0.01513 97.3419 0.411777 
40 4 4.69839 1.52899 98.4152 -0.901539 
41 3 4.94367 1.28484 99.3326 0.394395 
42 4 3.93342 3.26477 95.8285 -0.839321 
43 3 4.03956 3.91797 95.1329 0.370525 
44 4 3.67319 4.58334 98.7929 -0.86321 
45 3 3.32155 5.27001 99.3627 0.371326 
16 4 93.6974 1.76732 98.3428 -0.679704 
1 1 97.2364 0.50373 99.1976 1.32393 
3 4 96.2865 1.8573 99.2101 -0.684281 
5 4 98.733 0.87374 98.691 -0.827512 
8 1 94.7067 2.11319 99.6091 1.19831 
30 3 93.7592 2.34318 97.5726 0.345529 
10 4 1.29749 99.1328 97.571 -1.00758 
11 2 2.89891 98.0529 96.929 2.04119 
34 4 2.49495 97.6672 95.0422 -0.814986 
35 3 2.83553 98.0107 94.2105 0.367271 
36 4 4.41916 99.261 96.8181 -0.852997 
38 4 3.17597 96.1557 97.5999 -0.815503 
39 3 3.12821 95.3695 97.0452 0.352278 
46 4 3.43157 97.9382 99.3863 -0.971761 
47 3 3.4991 96.969 99.2714 0.396371 
25 3 93.6111 99.6328 98.3972 0.38565 
4 4 96.5302 99.3435 98.2809 -0.693358 
9 1 95.3481 98.2028 98.5344 1.21838 
22 4 95.0261 97.4787 97.0997 -0.627611 
23 4 93.9592 98.9795 99.0264 -0.695082 
24 4 95.7801 97.113 99.6598 -0.650779 
26 3 95.7877 97.1319 96.6225 0.359551 
ITEM: TIMESTEP
85
ITEM: NUMBER OF ATOMS
51
ITEM: BOX BOUNDS pp pp pp
0.0000000000000000e+00 1.0000000000000000e+02
0.0000000000000000e+00 1.0000000000000000e+02
0.0000000000000000e+00 1.0000000000000000e+02
ITEM: ATOMS id type x y z q 
12 4 1.52107 0.251314 0.195023 -1.09804 
48 4 4.50914 0.388983 0.788315 -0.933059 
49 3 5.22357 0.624531 1.3455 0.365492 
17 4 94.4873 3.63288 -0.0806098 -0.650629 
18 4 94.2506 1.08224 0.792916 -0.71634 
20 4 96.0783 0.584764 2.82192 -0.662656 
28 3 95.4236 0.920427 2.18236 0.4034 
29 3 94.0462 0.173675 0.468385 0.381524 
31 3 95.2479 4.08901 0.270208 0.354169 
32 3 99.1673 0.094196 2.7714 0.337657 
13 2 2.97711 99.2148 0.785783 2.12063 
50 4 2.69659 98.4269 2.50623 -0.892003 
51 3 2.03826 98.3509 3.15698 0.388821 
2 4 97.5702 99.8894 0.71588 -0.748858 
7 1 97.138 99.4971 2.21529 1.23493 
19 4 96.4242 98.0169 2.21204 -0.714808 
21 4 98.5131 99.4862 3.10851 -0.634185 
27 3 96.0593 97.5253 0.567402 0.420457 
33 3 95.9665 97.7652 3.01777 0.356432 
6 2 0.74607 0.787799 98.5443 2.15388 
14 4 1.63536 2.35226 98.0458 -1.12689 
15 2 3.324 3.02232 97.694 2.1837 
37 3 4.82213 0.00226071 97.4326 0.428858 
40 4 4.44561 1.58881 98.3066 -0.950595 
41 3 4.80822 1.26159 99.1312 0.407557 
42 4 3.63168 3.35456 95.8458 -0.890696 
43 3 4.13033 3.91125 95.2951 0.380816 
44 4 3.65512 4.58671 98.7243 -0.897568 
45 3 3.21701 5.16463 99.3041 0.375152 
16 4 93.9622 1.65453 98.2136 -0.713277 
1 1 97.2447 0.495178 99.2387 1.32848 
3 4 96.3602 1.86474 99.3715 -0.706322 
5 4 98.7193 0.852663 98.6168 -0.824682 
8 1 94.7708 2.05506 99.5785 1.21607 
30 3 93.7112 2.41203 97.6768 0.357572 
10 4 1.5577 99.3339 97.6031 -1.0674 
11 2 2.9259 98.0391 97.1774 2.18912 
34 4 2.52054 97.7594 95.2748 -0.83127 
35 3 2.81339 98.0346 94.439 0.38549 
36 4 4.50369 99.1858 97.065 -0.85847 
38 4 3.13673 96.1192 97.5349 -0.863994 
39 3 3.13567 95.3113 97.0781 0.381511 
46 4 3.23862 97.8694 99.3881 -1.06227 
47 3 3.47627 96.9413 99.3403 0.384051 
25 3 93.7894 99.8262 98.4722 0.401833 
4 4 96.5457 99.3757 98.2864 -0.717211 
9 1 95.3893 98.2978 98.5535 1.24721 
22 4 95.1037 97.527 97.1369 -0.622754 
23 4 94.012 99.0388 99.0291 -0.711729 
24 4 95.8665 97.1999 99.6595 -0.65211 
26 3 95.8819 97.1436 96.7415 0.362999 
