ITEM: TIMESTEP
0
ITEM: NUMBER OF ATOMS
51
ITEM: BOX BOUNDS pp pp pp
0.0000000000000000e+00 1.0000000000000000e+02
0.0000000000000000e+00 1.0000000000000000e+02
0.0000000000000000e+00 1.0000000000000000e+02
ITEM: ATOMS id type x y z q 
12 4 0.60804 0.24313 1.42717 -1.04821 
40 4 4.33022 1.19449 0.84953 -0.901916 
41 3 4.16508 0.99174 1.79446 0.39371 
44 4 3.4634 4.31575 0.67912 -0.86319 
45 3 2.96193 5.05225 1.03391 0.370959 
48 4 3.28535 0.28451 3.24956 -0.882435 
49 3 3.53554 0.57155 4.13455 0.354638 
17 4 94.5531 3.68028 0.05984 -0.636266 
18 4 94.2328 1.08545 0.81639 -0.699058 
20 4 95.9601 0.60192 2.98173 -0.651707 
28 3 95.2189 0.84544 2.39047 0.404085 
29 3 93.956 0.21773 0.45311 0.390925 
31 3 95.3715 4.12226 0.31086 0.353488 
32 3 99.1638 0.10482 2.53314 0.366878 
13 2 1.79152 99.1427 2.55699 1.97524 
46 4 2.52311 97.7388 1.33392 -0.97206 
47 3 2.56116 96.7624 1.28742 0.397466 
50 4 0.67719 98.454 3.98896 -0.832608 
2 4 97.3559 99.9372 0.73154 -0.752453 
7 1 97.0482 99.5993 2.29443 1.22029 
19 4 96.494 98.027 2.26095 -0.698109 
21 4 98.4873 99.6881 3.10045 -0.692095 
27 3 96.0706 97.3974 0.54609 0.415524 
33 3 95.9436 97.7437 2.99954 0.348214 
51 3 99.7159 98.5902 4.07018 0.423021 
6 2 0.57698 0.55499 99.4276 2.00322 
14 4 1.82912 2.04671 99.133 -1.0093 
15 2 3.63981 2.65033 99.6835 2.02071 
42 4 4.80473 2.81415 98.1217 -0.839019 
43 3 5.23009 3.419 97.5093 0.371226 
16 4 93.6974 1.76732 98.3428 -0.680511 
1 1 97.2364 0.50373 99.1976 1.29975 
3 4 96.2865 1.8573 99.2101 -0.680944 
5 4 98.733 0.87374 98.691 -0.809372 
8 1 94.7067 2.11319 99.6091 1.20276 
30 3 93.7592 2.34318 97.5726 0.345088 
10 4 1.39826 98.9368 98.7695 -1.00562 
11 2 3.03995 97.7378 98.8705 2.04082 
34 4 3.40714 97.2643 96.9962 -0.813847 
35 3 4.07895 97.5401 96.365 0.367254 
36 4 4.55799 98.855 99.3504 -0.854139 
37 3 4.70879 99.6195 99.9422 0.411225 
38 4 2.88408 95.8711 99.6562 -0.814419 
39 3 3.00817 95.0573 99.1555 0.353311 
25 3 93.6111 99.6328 98.3972 0.385382 
4 4 96.5302 99.3435 98.2809 -0.685124 
9 1 95.3481 98.2028 98.5344 1.21983 
22 4 95.0261 97.4787 97.0997 -0.628389 
23 4 93.9592 98.9795 99.0264 -0.693257 
24 4 95.7801 97.113 99.6598 -0.649891 
26 3 95.7877 97.1319 96.6225 0.358907 
ITEM: TIMESTEP
501
ITEM: NUMBER OF ATOMS
51
ITEM: BOX BOUNDS pp pp pp
0.0000000000000000e+00 1.0000000000000000e+02
0.0000000000000000e+00 1.0000000000000000e+02
0.0000000000000000e+00 1.0000000000000000e+02
ITEM: ATOMS id type x y z q 
12 4 0.797528 0.116839 1.45513 -1.09491 
40 4 4.18612 1.38355 0.514103 -0.948693 
41 3 4.22088 0.98603 1.37974 0.41209 
44 4 3.16923 4.3586 0.757092 -0.891354 
45 3 2.71171 5.16444 0.818924 0.380702 
48 4 3.54734 99.9974 2.83792 -0.929607 
49 3 4.18833 0.138426 3.5033 0.363943 
17 4 94.481 3.51158 99.9995 -0.650354 
18 4 94.09 0.878719 0.503707 -0.713792 
20 4 95.8549 0.663793 2.66184 -0.647886 
28 3 95.3127 0.845454 1.87939 0.398823 
29 3 93.9528 0.0271757 0.0329709 0.376479 
31 3 95.2041 3.92896 0.461252 0.362222 
32 3 99.1947 99.9764 2.82772 0.344193 
13 2 1.90339 99.0006 2.54855 2.07167 
46 4 2.33821 97.5256 1.27651 -1.03619 
47 3 2.31894 96.5708 1.26358 0.377549 
50 4 0.768834 98.5355 4.02941 -0.887193 
2 4 97.595 99.6121 0.842016 -0.776837 
7 1 97.077 99.5811 2.38366 1.1783 
19 4 96.4384 98.057 2.6055 -0.666765 
21 4 98.4008 99.8566 3.35517 -0.653974 
27 3 96.0615 97.8291 0.721156 0.403642 
33 3 95.6717 98.0563 3.18136 0.359767 
51 3 99.892 98.6926 4.30962 0.433452 
6 2 0.558937 0.587713 99.6226 2.21357 
14 4 1.6285 2.08972 99.3728 -1.13023 
15 2 3.29684 2.83196 99.6292 2.19733 
42 4 4.2717 3.22996 98.0453 -0.892327 
43 3 5.12703 3.14211 97.6939 0.38345 
16 4 94.2945 1.7495 98.0112 -0.71115 
1 1 97.2991 0.377209 99.4336 1.30081 
3 4 96.4161 1.73432 99.6856 -0.711921 
5 4 98.7866 0.78431 98.9077 -0.86082 
8 1 94.8286 1.97785 99.5413 1.20885 
30 3 93.7304 2.46732 97.7074 0.357061 
10 4 1.51413 99.0591 99.0051 -1.07053 
11 2 2.85836 97.6847 99.0792 2.19206 
34 4 3.30903 97.4595 97.1843 -0.830426 
35 3 3.94319 97.7407 96.5691 0.386962 
36 4 4.38705 98.7899 99.5873 -0.864167 
37 3 4.55885 99.6488 99.9457 0.421997 
38 4 2.62635 95.7651 99.3989 -0.866739 
39 3 2.64336 94.9647 98.9297 0.386756 
25 3 94.0703 99.9066 98.0849 0.393354 
4 4 96.6016 99.3306 98.3974 -0.730107 
9 1 95.4362 98.2433 98.5825 1.24369 
22 4 95.6333 97.2428 97.3027 -0.611 
23 4 94.0018 99.0184 98.4933 -0.6921 
24 4 95.546 97.4466 0.000762559 -0.646021 
26 3 96.355 97.5328 96.7485 0.366374 
