ITEM: TIMESTEP
0
ITEM: NUMBER OF ATOMS
51
ITEM: BOX BOUNDS pp pp pp
0.0000000000000000e+00 1.0000000000000000e+02
0.0000000000000000e+00 1.0000000000000000e+02
0.0000000000000000e+00 1.0000000000000000e+02
ITEM: ATOMS id type x y z q 
12 4 0.75329 0.24323 1.32177 -1.04007 
40 4 4.4326 1.22831 0.55644 -0.901859 
41 3 4.31864 1.01892 1.50747 0.393712 
44 4 3.53343 4.34326 0.45028 -0.863128 
45 3 3.04537 5.07362 0.83517 0.371085 
48 4 3.52171 0.29637 3.0022 -0.882526 
49 3 3.8155 0.58049 3.87464 0.354369 
17 4 94.5531 3.68028 0.05984 -0.636319 
18 4 94.2328 1.08545 0.81639 -0.699364 
20 4 95.9601 0.60192 2.98173 -0.651432 
28 3 95.2189 0.84544 2.39047 0.403592 
29 3 93.956 0.21773 0.45311 0.390618 
31 3 95.3715 4.12226 0.31086 0.353451 
32 3 99.1638 0.10482 2.53314 0.352981 
13 2 2.00282 99.1462 2.38166 1.97396 
46 4 2.6806 97.7553 1.11366 -0.97204 
47 3 2.72389 96.7795 1.05936 0.397395 
50 4 0.97026 98.4404 3.86565 -0.832439 
51 3 0.01348 98.5683 3.99773 0.40748 
2 4 97.3559 99.9372 0.73154 -0.749996 
7 1 97.0482 99.5993 2.29443 1.21969 
19 4 96.494 98.027 2.26095 -0.696065 
21 4 98.4873 99.6881 3.10045 -0.671933 
27 3 96.0706 97.3974 0.54609 0.415633 
33 3 95.9436 97.7437 2.99954 0.34858 
6 2 0.61539 0.56601 99.3285 2.0023 
14 4 1.83862 2.06957 98.9779 -1.00907 
15 2 3.67076 2.68494 99.4368 2.02094 
42 4 4.7512 2.86704 97.8174 -0.838921 
43 3 5.13921 3.47878 97.1873 0.371267 
16 4 93.6974 1.76732 98.3428 -0.680422 
1 1 97.2364 0.50373 99.1976 1.30399 
3 4 96.2865 1.8573 99.2101 -0.681287 
5 4 98.733 0.87374 98.691 -0.812054 
8 1 94.7067 2.11319 99.6091 1.20205 
30 3 93.7592 2.34318 97.5726 0.345282 
10 4 1.41394 98.9583 98.6186 -1.00581 
11 2 3.06809 97.7723 98.6267 2.04074 
34 4 3.34063 97.3123 96.733 -0.813848 
35 3 3.97636 97.5971 96.0692 0.367411 
36 4 4.60024 98.8992 99.0334 -0.853934 
37 3 4.7757 99.6615 99.6212 0.411341 
38 4 2.96821 95.9 99.4082 -0.814531 
39 3 3.07241 95.0901 98.8968 0.353206 
25 3 93.6111 99.6328 98.3972 0.385456 
4 4 96.5302 99.3435 98.2809 -0.686179 
9 1 95.3481 98.2028 98.5344 1.21949 
22 4 95.0261 97.4787 97.0997 -0.628291 
23 4 93.9592 98.9795 99.0264 -0.693589 
24 4 95.7801 97.113 99.6598 -0.649975 
26 3 95.7877 97.1319 96.6225 0.359061 
ITEM: TIMESTEP
35
ITEM: NUMBER OF ATOMS
51
ITEM: BOX BOUNDS pp pp pp
0.0000000000000000e+00 1.0000000000000000e+02
0.0000000000000000e+00 1.0000000000000000e+02
0.0000000000000000e+00 1.0000000000000000e+02
ITEM: ATOMS id type x y z q 
12 4 0.865989 0.198892 1.17242 -1.09983 
40 4 4.27284 1.24329 0.500617 -0.95227 
41 3 4.33911 1.00932 1.4249 0.409867 
44 4 3.57232 4.27082 0.370865 -0.897191 
45 3 2.99546 4.90429 0.727417 0.372161 
48 4 3.46499 0.26009 2.94558 -0.925879 
49 3 3.83141 0.559833 3.75023 0.367522 
17 4 94.5405 3.61932 -0.00901396 -0.646627 
18 4 94.253 1.0599 0.796502 -0.7178 
20 4 95.924 0.555393 2.9383 -0.647429 
28 3 95.2758 0.899258 2.30067 0.406867 
29 3 94.0078 0.166974 0.458928 0.387144 
31 3 95.3406 4.04679 0.289972 0.353442 
32 3 99.1733 0.0926236 2.55073 0.339399 
13 2 1.99696 99.1599 2.30901 2.08002 
46 4 2.61737 97.7713 1.01766 -1.0362 
47 3 2.76485 96.8223 1.02065 0.379157 
50 4 0.949379 98.4578 3.76578 -0.87702 
51 3 0.0741245 98.509 4.08657 0.430507 
2 4 97.4457 99.9579 0.739084 -0.76576 
7 1 97.0631 99.5564 2.26715 1.19096 
19 4 96.4755 97.9837 2.29336 -0.690269 
21 4 98.4951 99.6916 3.10288 -0.660735 
27 3 96.0555 97.4577 0.513921 0.409597 
33 3 95.9449 97.7913 3.0723 0.351974 
6 2 0.601681 0.621899 99.33 2.17419 
14 4 1.80763 2.0383 99.1093 -1.13027 
15 2 3.53583 2.63047 99.407 2.18509 
42 4 4.57089 2.83716 97.8203 -0.883214 
43 3 5.06805 3.47984 97.3709 0.383766 
16 4 93.8472 1.65472 98.2745 -0.709892 
1 1 97.2293 0.493646 99.2215 1.31385 
3 4 96.3135 1.84889 99.247 -0.704938 
5 4 98.7487 0.852339 98.7029 -0.845982 
8 1 94.7516 2.04735 99.5918 1.2223 
30 3 93.7615 2.35801 97.6321 0.355819 
10 4 1.53118 99.0765 98.7063 -1.0661 
11 2 2.96595 97.8014 98.7803 2.19336 
34 4 3.29313 97.4078 96.8884 -0.83085 
35 3 3.90652 97.6014 96.2204 0.390057 
36 4 4.52095 98.9319 99.1103 -0.862555 
37 3 4.77092 99.6675 99.6519 0.428189 
38 4 2.95482 95.914 99.3039 -0.872074 
39 3 3.06461 95.0738 98.9243 0.383877 
25 3 93.7422 99.8077 98.4745 0.40323 
4 4 96.5668 99.3357 98.2811 -0.709742 
9 1 95.3718 98.2919 98.5359 1.2449 
22 4 95.0493 97.5547 97.1106 -0.624482 
23 4 93.9958 99.0323 99.0251 -0.711631 
24 4 95.8414 97.1639 99.6175 -0.652256 
26 3 95.8087 97.1536 96.6992 0.363759 
