ITEM: TIMESTEP
0
ITEM: NUMBER OF ATOMS
33
ITEM: BOX BOUNDS pp pp pp
0.0000000000000000e+00 1.0000000000000000e+02
0.0000000000000000e+00 1.0000000000000000e+02
0.0000000000000000e+00 1.0000000000000000e+02
ITEM: ATOMS id type x y z q 
12 1 4.48127 1.1471 0.87097 -0.637367 
22 4 5.37465 1.50779 0.854981 0.356182 
14 1 97.2702 0.040542 1.54585 -0.716771 
21 1 97.9926 2.74632 1.30664 -0.670061 
28 4 99.4042 4.93072 0.494846 0.360975 
29 4 97.6999 1.85126 1.57844 0.404648 
9 3 4.22322 99.7604 0.01567 1.22125 
11 1 4.88767 98.4041 0.698756 -0.656392 
24 4 4.45167 98.0418 1.4781 0.347218 
2 1 99.7841 99.1022 1.48044 -0.840531 
8 3 98.2848 98.8364 2.11449 1.2148 
13 1 97.71 97.3572 1.69566 -0.651253 
15 1 98.4051 98.9733 3.74385 -0.60665 
25 4 97.6285 97.1695 0.743279 0.400362 
26 4 97.6224 98.7592 4.26311 0.362149 
27 4 96.9386 99.8871 0.640081 0.378814 
3 1 0.078893 1.75871 99.8774 -0.837769 
7 3 98.8459 2.83669 99.9126 1.21134 
19 1 97.9306 2.42066 98.5628 -0.703893 
20 1 99.3056 4.40147 99.6952 -0.626129 
30 4 97.3142 3.09919 98.2601 0.355604 
33 4 97.3831 0.727134 98.504 0.393337 
1 2 0.658327 99.8934 99.933 2.05196 
5 1 2.59622 99.6097 99.9274 -0.847942 
10 1 4.95798 99.908 98.5446 -0.63558 
23 4 5.29167 99.0906 98.158 0.356893 
4 1 99.7484 99.0246 98.4063 -0.860901 
6 3 98.1914 98.6499 98.0455 1.18591 
16 1 98.029 98.418 96.4212 -0.634811 
17 1 97.1805 99.7832 98.6931 -0.697029 
18 1 97.6943 97.2623 98.8169 -0.684008 
31 4 97.7468 96.447 98.3054 0.357204 
32 4 98.7567 98.7237 95.8684 0.348442 
ITEM: TIMESTEP
162
ITEM: NUMBER OF ATOMS
33
ITEM: BOX BOUNDS pp pp pp
0.0000000000000000e+00 1.0000000000000000e+02
0.0000000000000000e+00 1.0000000000000000e+02
0.0000000000000000e+00 1.0000000000000000e+02
ITEM: ATOMS id type x y z q 
12 1 4.60904 0.912577 1.02334 -0.649974 
22 4 5.10069 1.58865 0.566423 0.35813 
14 1 97.108 0.00216144 1.46171 -0.694263 
21 1 98.0268 2.72256 1.30938 -0.648258 
28 4 99.4645 4.89863 0.553706 0.365204 
29 4 97.6593 1.84696 1.4842 0.408692 
9 3 4.13228 99.6554 0.0345876 1.20662 
11 1 4.76275 98.2325 0.63735 -0.642444 
24 4 4.81717 98.2092 1.58766 0.358674 
2 1 99.6609 99.2548 1.43839 -0.870459 
8 3 98.2243 98.9463 2.12757 1.21057 
13 1 97.7528 97.3982 1.73224 -0.653562 
15 1 98.2729 99.0938 3.78992 -0.607475 
25 4 97.8232 97.1973 0.790666 0.400834 
26 4 97.8222 98.3907 4.24823 0.367492 
27 4 96.8472 99.7671 0.556563 0.387254 
3 1 0.133099 1.81761 99.9263 -0.863288 
7 3 98.8835 2.85587 99.8868 1.19167 
19 1 97.8807 2.47792 98.5954 -0.704139 
20 1 99.3913 4.43781 99.7232 -0.631482 
30 4 97.6141 3.25027 98.0996 0.36322 
33 4 97.2718 0.638329 98.4535 0.395247 
1 2 0.645577 99.9676 99.9533 2.13402 
5 1 2.51246 99.5868 99.9763 -0.878842 
10 1 4.77069 99.9149 98.5143 -0.648907 
23 4 5.24315 99.1616 98.172 0.360418 
4 1 99.6764 99.231 98.4653 -0.883282 
6 3 98.2127 98.6228 98.1045 1.17123 
16 1 98.0919 98.4146 96.4536 -0.633115 
17 1 97.0595 99.7121 98.6499 -0.694078 
18 1 97.9964 97.1404 98.8614 -0.695584 
31 4 97.544 96.5069 98.3059 0.364851 
32 4 98.8572 98.7161 95.9738 0.355024 
