ITEM: TIMESTEP
0
ITEM: NUMBER OF ATOMS
33
ITEM: BOX BOUNDS pp pp pp
0.0000000000000000e+00 1.0000000000000000e+02
0.0000000000000000e+00 1.0000000000000000e+02
0.0000000000000000e+00 1.0000000000000000e+02
ITEM: ATOMS id type x y z q 
12 1 4.08995 0.950078 0.855216 -0.65205 
22 4 4.90121 1.46945 0.875243 0.358756 
28 4 0.119136 4.84902 0.5579 0.361136 
14 1 97.3578 0.286073 1.59587 -0.716974 
21 1 98.4305 2.87473 1.38039 -0.669452 
27 4 96.9881 0.195721 0.696313 0.378735 
29 4 98.0278 2.02273 1.64983 0.405085 
11 1 4.94738 98.3073 0.693939 -0.649724 
24 4 4.50578 97.827 1.40316 0.350114 
2 1 99.715 99.0105 1.44436 -0.837907 
8 3 98.2119 98.945 2.12001 1.21564 
13 1 97.4259 97.5658 1.70232 -0.650956 
15 1 98.3947 99.0394 3.74669 -0.606167 
25 4 97.294 97.4063 0.750507 0.400314 
26 4 97.605 98.9228 4.28587 0.361929 
3 1 0.315292 1.62909 99.8751 -0.83921 
7 3 99.2488 2.86911 99.9627 1.21332 
17 1 97.1569 0.093403 98.745 -0.697655 
19 1 98.2473 2.60967 98.6352 -0.703487 
20 1 99.9185 4.35745 99.7533 -0.625983 
30 4 97.7164 3.36983 98.3666 0.355613 
33 4 97.481 1.00422 98.5628 0.393552 
1 2 0.647164 99.7058 99.885 2.05024 
5 1 2.53122 99.1412 99.8186 -0.840502 
9 3 4.1099 99.5469 99.984 1.20728 
10 1 4.88432 99.8455 98.5571 -0.6359 
23 4 5.34611 99.0968 98.1629 0.359051 
4 1 99.5885 98.9951 98.3726 -0.858231 
6 3 97.9852 98.8435 98.0539 1.18621 
16 1 97.7484 98.664 96.432 -0.635009 
18 1 97.3227 97.5249 98.822 -0.683625 
31 4 97.2568 96.7165 98.3012 0.357013 
32 4 98.4979 98.872 95.8631 0.348837 
ITEM: TIMESTEP
112
ITEM: NUMBER OF ATOMS
33
ITEM: BOX BOUNDS pp pp pp
0.0000000000000000e+00 1.0000000000000000e+02
0.0000000000000000e+00 1.0000000000000000e+02
0.0000000000000000e+00 1.0000000000000000e+02
ITEM: ATOMS id type x y z q 
12 1 4.21939 0.858564 0.978114 -0.647789 
22 4 4.83781 1.49669 0.635433 0.359674 
28 4 0.215257 4.78347 0.611118 0.366049 
14 1 97.19 0.258741 1.53085 -0.695081 
21 1 98.4863 2.82117 1.38995 -0.64783 
27 4 96.8779 0.0818279 0.62869 0.387622 
29 4 98.0025 2.00302 1.56086 0.408315 
11 1 4.89421 98.2303 0.640515 -0.639443 
24 4 4.48548 97.8381 1.40547 0.357703 
2 1 99.6188 99.1789 1.41064 -0.870303 
8 3 98.1757 99.0507 2.14209 1.2107 
13 1 97.4887 97.5888 1.73471 -0.652454 
15 1 98.2916 99.1644 3.80366 -0.607287 
25 4 97.5056 97.3995 0.788546 0.40092 
26 4 97.6881 98.5945 4.27073 0.367445 
3 1 0.382211 1.67576 99.8897 -0.862736 
7 3 99.2887 2.87621 99.9313 1.19449 
17 1 97.0397 0.0277516 98.7166 -0.695415 
19 1 98.1874 2.6727 98.6815 -0.70322 
20 1 100.004 4.37664 99.7759 -0.631036 
30 4 98.0153 3.48494 98.2081 0.36379 
33 4 97.3654 0.920418 98.5214 0.395434 
1 2 0.653195 99.776 99.9085 2.13114 
5 1 2.45789 99.1537 99.9126 -0.878158 
9 3 4.03864 99.5143 100.005 1.19053 
10 1 4.65712 99.8688 98.4956 -0.646983 
23 4 5.28384 99.222 98.1844 0.361571 
4 1 99.5591 99.1873 98.441 -0.882158 
6 3 98.0136 98.8017 98.1162 1.17153 
16 1 97.8161 98.6489 96.4666 -0.633114 
18 1 97.6142 97.3484 98.8548 -0.694943 
31 4 97.062 96.7955 98.3035 0.365379 
32 4 98.5999 98.857 95.9673 0.355656 
