ITEM: TIMESTEP
0
ITEM: NUMBER OF ATOMS
33
ITEM: BOX BOUNDS pp pp pp
0.0000000000000000e+00 1.0000000000000000e+02
0.0000000000000000e+00 1.0000000000000000e+02
0.0000000000000000e+00 1.0000000000000000e+02
ITEM: ATOMS id type x y z q 
12 1 4.40251 1.10455 0.867896 -0.640398 
22 4 5.28142 1.49943 0.86259 0.356392 
14 1 97.2841 0.099816 1.55717 -0.716867 
21 1 98.0917 2.7809 1.32151 -0.669965 
28 4 99.5675 4.9214 0.506356 0.361078 
29 4 97.773 1.89454 1.59264 0.404765 
9 3 4.20549 99.7095 0.008635 1.21919 
11 1 4.91135 98.3777 0.697322 -0.655222 
24 4 4.47847 97.9968 1.46947 0.34773 
2 1 99.767 99.0828 1.4736 -0.840049 
8 3 98.2641 98.863 2.11645 1.21496 
13 1 97.6401 97.4036 1.69801 -0.651261 
15 1 98.3986 98.9921 3.74536 -0.606539 
25 4 97.5471 97.2208 0.745747 0.40033 
26 4 97.6127 98.8014 4.26884 0.362044 
27 4 96.9421 99.959 0.653256 0.378836 
3 1 0.136062 1.73163 99.8761 -0.838017 
7 3 98.9383 2.84832 99.9221 1.21168 
19 1 98.0014 2.46569 98.5772 -0.703967 
20 1 99.4463 4.39824 99.7058 -0.626107 
30 4 97.4053 3.16466 98.2805 0.355513 
33 4 97.3997 0.791401 98.5167 0.393433 
1 2 0.656654 99.8495 99.9226 2.05205 
5 1 2.5855 99.5021 99.904 -0.846858 
10 1 4.95026 99.8879 98.5461 -0.635567 
23 4 5.31688 99.0843 98.1603 0.357534 
4 1 99.7093 99.0154 98.3993 -0.860324 
6 3 98.1389 98.691 98.0479 1.18602 
16 1 97.9589 98.4689 96.424 -0.634928 
17 1 97.1683 99.8539 98.7048 -0.697164 
18 1 97.6031 97.3178 98.819 -0.684022 
31 4 97.6269 96.5026 98.3051 0.357167 
32 4 98.6926 98.7527 95.8675 0.348515 
ITEM: TIMESTEP
226
ITEM: NUMBER OF ATOMS
33
ITEM: BOX BOUNDS pp pp pp
0.0000000000000000e+00 1.0000000000000000e+02
0.0000000000000000e+00 1.0000000000000000e+02
0.0000000000000000e+00 1.0000000000000000e+02
ITEM: ATOMS id type x y z q 
12 1 4.54426 0.892528 1.01137 -0.652088 
22 4 5.00582 1.58696 0.550421 0.358214 
14 1 97.1131 0.0725901 1.47166 -0.693684 
21 1 98.101 2.76775 1.30414 -0.648084 
28 4 99.6177 4.8873 0.570564 0.365219 
29 4 97.7167 1.90121 1.48829 0.409146 
9 3 4.11425 99.6144 0.0278747 1.2045 
11 1 4.82524 98.2242 0.617292 -0.640803 
24 4 4.94206 98.2246 1.56231 0.35863 
2 1 99.6311 99.214 1.4614 -0.870464 
8 3 98.1775 98.9659 2.1395 1.21057 
13 1 97.6438 97.4412 1.73207 -0.654226 
15 1 98.2276 99.0996 3.80286 -0.60739 
25 4 97.7044 97.2458 0.788946 0.400915 
26 4 97.8205 98.3678 4.25698 0.367548 
27 4 96.8403 99.8498 0.56695 0.387273 
3 1 0.192204 1.76813 99.9626 -0.863844 
7 3 98.9904 2.85991 99.8984 1.19225 
19 1 97.9984 2.52369 98.5871 -0.704011 
20 1 99.5682 4.4186 99.7426 -0.631863 
30 4 97.7845 3.30411 98.0784 0.363084 
33 4 97.3013 0.715876 98.4602 0.395836 
1 2 0.640594 99.9017 99.9816 2.13375 
5 1 2.4983 99.4734 99.99 -0.876633 
10 1 4.71488 99.9065 98.4983 -0.649552 
23 4 5.19053 99.1659 98.1335 0.36064 
4 1 99.6486 99.2028 98.4903 -0.883039 
6 3 98.1614 98.6648 98.1149 1.17139 
16 1 98.044 98.4727 96.462 -0.633333 
17 1 97.0531 99.7996 98.6602 -0.694527 
18 1 97.8716 97.189 98.8599 -0.695148 
31 4 97.3863 96.584 98.3003 0.36472 
32 4 98.8318 98.7269 95.9911 0.35501 
