ITEM: TIMESTEP
0
ITEM: NUMBER OF ATOMS
33
ITEM: BOX BOUNDS pp pp pp
0.0000000000000000e+00 1.0000000000000000e+02
0.0000000000000000e+00 1.0000000000000000e+02
0.0000000000000000e+00 1.0000000000000000e+02
ITEM: ATOMS id type x y z q 
12 1 4.63482 1.23802 0.874248 -0.631646 
22 4 5.55331 1.52641 0.833049 0.355259 
21 1 97.775 2.65516 1.27795 -0.670149 
28 4 99.0346 4.93047 0.475114 0.36069 
29 4 97.5454 1.74254 1.55152 0.404469 
9 3 4.24641 99.8772 0.027944 1.224 
11 1 4.82055 98.4732 0.697998 -0.659657 
24 4 4.40977 98.1704 1.51549 0.346289 
2 1 99.8284 99.1417 1.49796 -0.840896 
8 3 98.3405 98.7742 2.10795 1.2139 
13 1 97.8781 97.2564 1.68782 -0.651061 
14 1 97.2543 99.9018 1.51533 -0.717069 
15 1 98.4229 98.9263 3.73833 -0.606686 
25 4 97.8218 97.0603 0.735333 0.400222 
26 4 97.6481 98.6606 4.24531 0.362349 
27 4 96.9476 99.7218 0.605637 0.37912 
3 1 99.9467 1.81031 99.8849 -0.837419 
7 3 98.6407 2.79872 99.8959 1.21082 
19 1 97.7776 2.31305 98.535 -0.703899 
20 1 98.9924 4.39118 99.6772 -0.62622 
30 4 97.1194 2.9449 98.2196 0.355874 
33 4 97.3552 0.585336 98.4736 0.393758 
1 2 0.660108 99.9917 99.958 2.05179 
5 1 2.61138 99.8537 99.9782 -0.847741 
10 1 4.95118 99.9597 98.5373 -0.635699 
23 4 5.22511 99.1184 98.1548 0.35582 
4 1 99.8362 99.0529 98.4245 -0.862185 
6 3 98.3159 98.5682 98.0391 1.18586 
16 1 98.1977 98.3194 96.4135 -0.634772 
17 1 97.2173 99.6301 98.6644 -0.696764 
18 1 97.905 97.152 98.8088 -0.683997 
31 4 98.0188 96.3408 98.3009 0.357381 
32 4 98.9095 98.6761 95.8706 0.348263 
ITEM: TIMESTEP
129
ITEM: NUMBER OF ATOMS
33
ITEM: BOX BOUNDS pp pp pp
0.0000000000000000e+00 1.0000000000000000e+02
0.0000000000000000e+00 1.0000000000000000e+02
0.0000000000000000e+00 1.0000000000000000e+02
ITEM: ATOMS id type x y z q 
12 1 4.75064 0.985355 1.02917 -0.646404 
22 4 5.26736 1.63482 0.561789 0.358188 
21 1 97.818 2.62588 1.28958 -0.648445 
28 4 99.1217 4.89667 0.528254 0.364891 
29 4 97.5199 1.72393 1.46571 0.407636 
9 3 4.1575 99.7715 0.047519 1.21015 
11 1 4.65996 98.3024 0.659168 -0.64596 
24 4 4.71401 98.2824 1.60961 0.358939 
2 1 99.7138 99.2874 1.42731 -0.869791 
8 3 98.3022 98.875 2.1133 1.21061 
13 1 97.9419 97.2965 1.72102 -0.651243 
14 1 97.1117 99.8429 1.44306 -0.697204 
15 1 98.329 99.0411 3.77417 -0.607947 
25 4 98.0403 97.0963 0.781534 0.401037 
26 4 97.7921 98.401 4.23105 0.366958 
27 4 96.8741 99.5889 0.536641 0.387337 
3 1 99.9899 1.878 99.9157 -0.863814 
7 3 98.666 2.81909 99.8688 1.19213 
19 1 97.6974 2.36089 98.5773 -0.704079 
20 1 99.0577 4.43282 99.6988 -0.631262 
30 4 97.3515 3.10835 98.0926 0.363264 
33 4 97.2445 0.477976 98.4317 0.395115 
1 2 0.649458 100.076 99.9494 2.13511 
5 1 2.53899 99.836 99.9937 -0.880883 
10 1 4.81132 99.9585 98.5235 -0.648503 
23 4 5.25014 99.1762 98.2026 0.359506 
4 1 99.7502 99.2605 98.4583 -0.883649 
6 3 98.3392 98.5409 98.0951 1.1715 
16 1 98.2385 98.3201 96.4446 -0.633167 
17 1 97.103 99.5398 98.6319 -0.694757 
18 1 98.2358 97.0479 98.8553 -0.695337 
31 4 97.836 96.3793 98.3011 0.365174 
32 4 98.9681 98.6985 95.9638 0.354906 
