ITEM: TIMESTEP
0
ITEM: NUMBER OF ATOMS
33
ITEM: BOX BOUNDS pp pp pp
0.0000000000000000e+00 1.0000000000000000e+02
0.0000000000000000e+00 1.0000000000000000e+02
0.0000000000000000e+00 1.0000000000000000e+02
ITEM: ATOMS id type x y z q 
12 1 4.36269 1.08324 0.867376 -0.64187 
22 4 5.23392 1.49486 0.866651 0.356758 
14 1 97.2927 0.127241 1.56277 -0.716889 
21 1 98.1384 2.79702 1.32981 -0.669812 
28 4 99.6487 4.91432 0.51367 0.361107 
29 4 97.8081 1.91486 1.60072 0.404793 
9 3 4.19539 99.686 0.005339 1.21794 
11 1 4.92032 98.3655 0.695754 -0.654352 
24 4 4.48239 97.9679 1.45653 0.348023 
2 1 99.7591 99.0712 1.46943 -0.839789 
8 3 98.255 98.8742 2.11676 1.21504 
13 1 97.6066 97.4256 1.69793 -0.651201 
15 1 98.3967 98.9985 3.74546 -0.606498 
25 4 97.5083 97.2459 0.745607 0.400315 
26 4 97.6095 98.8197 4.27108 0.361997 
27 4 96.9458 99.9934 0.659672 0.378803 
3 1 0.161474 1.71735 99.8775 -0.838373 
7 3 98.9821 2.85322 99.9282 1.21204 
19 1 98.0359 2.4877 98.5852 -0.703918 
20 1 99.5142 4.39515 99.7126 -0.626187 
30 4 97.45 3.19633 98.291 0.355545 
33 4 97.4087 0.822678 98.5233 0.393473 
1 2 0.655732 99.8284 99.9177 2.05185 
5 1 2.57968 99.4498 99.8921 -0.846501 
10 1 4.94528 99.8821 98.5477 -0.635602 
23 4 5.32204 99.0851 98.158 0.357688 
4 1 99.6912 99.013 98.3951 -0.860111 
6 3 98.1151 98.7125 98.0482 1.18608 
16 1 97.9269 98.4958 96.4245 -0.634898 
17 1 97.1637 99.8883 98.71 -0.697094 
18 1 97.5612 97.346 98.8186 -0.683961 
31 4 97.5739 96.5311 98.304 0.357073 
32 4 98.6636 98.7689 95.8664 0.34854 
ITEM: TIMESTEP
204
ITEM: NUMBER OF ATOMS
33
ITEM: BOX BOUNDS pp pp pp
0.0000000000000000e+00 1.0000000000000000e+02
0.0000000000000000e+00 1.0000000000000000e+02
0.0000000000000000e+00 1.0000000000000000e+02
ITEM: ATOMS id type x y z q 
12 1 4.50545 0.87533 1.01248 -0.651815 
22 4 4.99251 1.56158 0.565909 0.358267 
14 1 97.1213 0.101008 1.47804 -0.693779 
21 1 98.1538 2.7799 1.31867 -0.648029 
28 4 99.6975 4.88052 0.576778 0.365302 
29 4 97.7529 1.91993 1.49862 0.409089 
9 3 4.10619 99.5926 0.0220435 1.20295 
11 1 4.83672 98.2117 0.609076 -0.640507 
24 4 4.87239 98.1709 1.55965 0.358386 
2 1 99.6293 99.2131 1.45183 -0.870481 
8 3 98.1767 98.981 2.13758 1.21072 
13 1 97.6229 97.463 1.73182 -0.654201 
15 1 98.2381 99.1138 3.80052 -0.607389 
25 4 97.6788 97.2667 0.78861 0.40087 
26 4 97.8064 98.3978 4.25698 0.367551 
27 4 96.8421 99.8837 0.573816 0.387229 
3 1 0.219855 1.7599 99.9526 -0.863508 
7 3 99.0305 2.866 99.9046 1.19238 
19 1 98.0211 2.54616 98.6026 -0.703944 
20 1 99.6255 4.41808 99.7471 -0.631749 
30 4 97.8105 3.33128 98.0999 0.36324 
33 4 97.307 0.745287 98.4711 0.395732 
1 2 0.643248 99.8874 99.9688 2.13335 
5 1 2.49281 99.4251 99.9779 -0.876822 
10 1 4.70727 99.9018 98.4959 -0.64933 
23 4 5.20391 99.174 98.1331 0.361018 
4 1 99.6349 99.2075 98.4799 -0.883052 
6 3 98.14 98.685 98.1138 1.17161 
16 1 98.0119 98.4957 96.4614 -0.633164 
17 1 97.0472 99.8312 98.6665 -0.694405 
18 1 97.8396 97.2115 98.859 -0.695468 
31 4 97.3463 96.6109 98.3015 0.364749 
32 4 98.7996 98.7435 95.9869 0.355199 
