ITEM: TIMESTEP
0
ITEM: NUMBER OF ATOMS
33
ITEM: BOX BOUNDS pp pp pp
0.0000000000000000e+00 1.0000000000000000e+02
0.0000000000000000e+00 1.0000000000000000e+02
0.0000000000000000e+00 1.0000000000000000e+02
ITEM: ATOMS id type x y z q 
12 1 4.48127 1.1471 0.87097 -0.637367 
22 4 5.37465 1.50779 0.854981 0.356182 
14 1 97.2702 0.040542 1.54585 -0.716771 
21 1 97.9926 2.74632 1.30664 -0.670061 
28 4 99.4042 4.93072 0.494846 0.360975 
29 4 97.6999 1.85126 1.57844 0.404648 
9 3 4.22322 99.7604 0.01567 1.22125 
11 1 4.88767 98.4041 0.698756 -0.656392 
24 4 4.45167 98.0418 1.4781 0.347218 
2 1 99.7841 99.1022 1.48044 -0.840531 
8 3 98.2848 98.8364 2.11449 1.2148 
13 1 97.71 97.3572 1.69566 -0.651253 
15 1 98.4051 98.9733 3.74385 -0.60665 
25 4 97.6285 97.1695 0.743279 0.400362 
26 4 97.6224 98.7592 4.26311 0.362149 
27 4 96.9386 99.8871 0.640081 0.378814 
3 1 0.078893 1.75871 99.8774 -0.837769 
7 3 98.8459 2.83669 99.9126 1.21134 
19 1 97.9306 2.42066 98.5628 -0.703893 
20 1 99.3056 4.40147 99.6952 -0.626129 
30 4 97.3142 3.09919 98.2601 0.355604 
33 4 97.3831 0.727134 98.504 0.393337 
1 2 0.658327 99.8934 99.933 2.05196 
5 1 2.59622 99.6097 99.9274 -0.847942 
10 1 4.95798 99.908 98.5446 -0.63558 
23 4 5.29167 99.0906 98.158 0.356893 
4 1 99.7484 99.0246 98.4063 -0.860901 
6 3 98.1914 98.6499 98.0455 1.18591 
16 1 98.029 98.418 96.4212 -0.634811 
17 1 97.1805 99.7832 98.6931 -0.697029 
18 1 97.6943 97.2623 98.8169 -0.684008 
31 4 97.7468 96.447 98.3054 0.357204 
32 4 98.7567 98.7237 95.8684 0.348442 
ITEM: TIMESTEP
200
ITEM: NUMBER OF ATOMS
33
ITEM: BOX BOUNDS pp pp pp
0.0000000000000000e+00 1.0000000000000000e+02
0.0000000000000000e+00 1.0000000000000000e+02
0.0000000000000000e+00 1.0000000000000000e+02
ITEM: ATOMS id type x y z q 
12 1 4.61028 0.915808 1.02249 -0.650264 
22 4 5.09618 1.59424 0.562752 0.358177 
14 1 97.109 0.00385437 1.46178 -0.694328 
21 1 98.0202 2.72613 1.30429 -0.648291 
28 4 99.4619 4.89936 0.552386 0.365112 
29 4 97.6567 1.84945 1.48286 0.408748 
9 3 4.132 99.6574 0.0357959 1.2067 
11 1 4.76782 98.2361 0.636756 -0.642285 
24 4 4.84416 98.2223 1.58585 0.3586 
2 1 99.6591 99.2459 1.44272 -0.87048 
8 3 98.2197 98.943 2.12875 1.21059 
13 1 97.7429 97.397 1.73103 -0.653691 
15 1 98.268 99.0894 3.7911 -0.607587 
25 4 97.8133 97.1976 0.789468 0.401089 
26 4 97.8298 98.3785 4.24938 0.36747 
27 4 96.847 99.7705 0.556528 0.387307 
3 1 0.131688 1.81185 99.9339 -0.863679 
7 3 98.886 2.85451 99.8867 1.19179 
19 1 97.8898 2.47819 98.5897 -0.704091 
20 1 99.3992 4.43484 99.7231 -0.631545 
30 4 97.6267 3.25083 98.0924 0.363156 
33 4 97.2756 0.64116 98.4513 0.395382 
1 2 0.644404 99.9621 99.9601 2.1342 
5 1 2.51249 99.5856 99.9805 -0.878549 
10 1 4.7655 99.9172 98.5135 -0.648938 
23 4 5.23179 99.1624 98.1662 0.360389 
4 1 99.6776 99.2237 98.4714 -0.883212 
6 3 98.2118 98.6233 98.1063 1.17138 
16 1 98.0942 98.4167 96.4551 -0.633255 
17 1 97.0613 99.7161 98.6501 -0.694403 
18 1 97.9869 97.1411 98.861 -0.695318 
31 4 97.5323 96.5102 98.3041 0.364846 
32 4 98.8632 98.713 95.9778 0.354975 
