ITEM: TIMESTEP
0
ITEM: NUMBER OF ATOMS
33
ITEM: BOX BOUNDS pp pp pp
0.0000000000000000e+00 1.0000000000000000e+02
0.0000000000000000e+00 1.0000000000000000e+02
0.0000000000000000e+00 1.0000000000000000e+02
ITEM: ATOMS id type x y z q 
12 1 4.58618 1.20935 0.873008 -0.63353 
22 4 5.49712 1.52179 0.840819 0.355495 
21 1 97.8462 2.68771 1.28688 -0.670187 
28 4 99.1573 4.93341 0.480826 0.360768 
29 4 97.5952 1.78063 1.56017 0.404518 
9 3 4.2413 99.8382 0.023978 1.22341 
11 1 4.84635 98.4499 0.69875 -0.658597 
24 4 4.42777 98.1293 1.50544 0.346565 
2 1 99.8135 99.1288 1.49241 -0.840796 
8 3 98.321 98.7953 2.11045 1.21422 
13 1 97.8211 97.2892 1.69125 -0.651118 
14 1 97.2578 99.9485 1.52522 -0.716956 
15 1 98.4159 98.9435 3.74051 -0.606689 
25 4 97.7559 97.0955 0.738839 0.400239 
26 4 97.638 98.695 4.25155 0.362271 
27 4 96.9434 99.777 0.616521 0.379085 
3 1 99.9904 1.79374 99.8814 -0.837563 
7 3 98.7081 2.81286 99.9007 1.211 
19 1 97.8268 2.34977 98.5436 -0.703905 
20 1 99.0965 4.39679 99.6823 -0.626174 
30 4 97.1815 2.99714 98.233 0.355749 
33 4 97.3637 0.632704 98.4836 0.393684 
1 2 0.659928 99.9586 99.9496 2.05196 
5 1 2.6078 99.7721 99.9614 -0.848019 
10 1 4.95671 99.9414 98.5397 -0.635665 
23 4 5.25096 99.1075 98.1561 0.356226 
4 1 99.8072 99.0413 98.4185 -0.861712 
6 3 98.2735 98.5938 98.0416 1.18584 
16 1 98.1399 98.35 96.4164 -0.634784 
17 1 97.2041 99.6809 98.6745 -0.696983 
18 1 97.8329 97.1869 98.8121 -0.683973 
31 4 97.9259 96.3736 98.3032 0.357318 
32 4 98.8574 98.6897 95.87 0.348315 
ITEM: TIMESTEP
102
ITEM: NUMBER OF ATOMS
33
ITEM: BOX BOUNDS pp pp pp
0.0000000000000000e+00 1.0000000000000000e+02
0.0000000000000000e+00 1.0000000000000000e+02
0.0000000000000000e+00 1.0000000000000000e+02
ITEM: ATOMS id type x y z q 
12 1 4.70174 0.985503 1.02259 -0.645247 
22 4 5.25954 1.60996 0.567892 0.358522 
21 1 97.888 2.6565 1.30368 -0.647766 
28 4 99.2648 4.89629 0.522682 0.364863 
29 4 97.5762 1.76015 1.48447 0.407214 
9 3 4.15805 99.7478 0.0432487 1.2084 
11 1 4.70082 98.2935 0.657689 -0.645154 
24 4 4.63699 98.2277 1.60521 0.35809 
2 1 99.7097 99.2624 1.41592 -0.869411 
8 3 98.294 98.8861 2.11527 1.20997 
13 1 97.8879 97.3183 1.72337 -0.65016 
14 1 97.1242 99.8887 1.45823 -0.697953 
15 1 98.3358 99.0544 3.77547 -0.60818 
25 4 97.976 97.1153 0.784009 0.401502 
26 4 97.7393 98.4711 4.23468 0.366707 
27 4 96.8745 99.645 0.552427 0.387612 
3 1 100.034 1.85611 99.9165 -0.864837 
7 3 98.7327 2.82968 99.8772 1.1917 
19 1 97.7458 2.39701 98.5903 -0.703601 
20 1 99.1575 4.43446 99.6968 -0.631295 
30 4 97.4031 3.15536 98.1197 0.363683 
33 4 97.2549 0.525955 98.4431 0.394968 
1 2 0.6531 100.04 99.9369 2.13457 
5 1 2.53766 99.7608 99.9776 -0.881314 
10 1 4.82047 99.9535 98.5245 -0.647775 
23 4 5.27588 99.1801 98.2043 0.360129 
4 1 99.7312 99.2442 98.4491 -0.883386 
6 3 98.2982 98.5621 98.0963 1.17115 
16 1 98.1765 98.3493 96.4459 -0.633207 
17 1 97.0935 99.5914 98.6466 -0.6949 
18 1 98.1577 97.0717 98.8551 -0.694888 
31 4 97.7409 96.4145 98.2989 0.365114 
32 4 98.9072 98.7171 95.9586 0.354887 
