ITEM: TIMESTEP
0
ITEM: NUMBER OF ATOMS
33
ITEM: BOX BOUNDS pp pp pp
0.0000000000000000e+00 1.0000000000000000e+02
0.0000000000000000e+00 1.0000000000000000e+02
0.0000000000000000e+00 1.0000000000000000e+02
ITEM: ATOMS id type x y z q 
12 1 4.63482 1.23802 0.874248 -0.631646 
22 4 5.55331 1.52641 0.833049 0.355259 
21 1 97.775 2.65516 1.27795 -0.670149 
28 4 99.0346 4.93047 0.475114 0.36069 
29 4 97.5454 1.74254 1.55152 0.404469 
9 3 4.24641 99.8772 0.027944 1.224 
11 1 4.82055 98.4732 0.697998 -0.659657 
24 4 4.40977 98.1704 1.51549 0.346289 
2 1 99.8284 99.1417 1.49796 -0.840896 
8 3 98.3405 98.7742 2.10795 1.2139 
13 1 97.8781 97.2564 1.68782 -0.651061 
14 1 97.2543 99.9018 1.51533 -0.717069 
15 1 98.4229 98.9263 3.73833 -0.606686 
25 4 97.8218 97.0603 0.735333 0.400222 
26 4 97.6481 98.6606 4.24531 0.362349 
27 4 96.9476 99.7218 0.605637 0.37912 
3 1 99.9467 1.81031 99.8849 -0.837419 
7 3 98.6407 2.79872 99.8959 1.21082 
19 1 97.7776 2.31305 98.535 -0.703899 
20 1 98.9924 4.39118 99.6772 -0.62622 
30 4 97.1194 2.9449 98.2196 0.355874 
33 4 97.3552 0.585336 98.4736 0.393758 
1 2 0.660108 99.9917 99.958 2.05179 
5 1 2.61138 99.8537 99.9782 -0.847741 
10 1 4.95118 99.9597 98.5373 -0.635699 
23 4 5.22511 99.1184 98.1548 0.35582 
4 1 99.8362 99.0529 98.4245 -0.862185 
6 3 98.3159 98.5682 98.0391 1.18586 
16 1 98.1977 98.3194 96.4135 -0.634772 
17 1 97.2173 99.6301 98.6644 -0.696764 
18 1 97.905 97.152 98.8088 -0.683997 
31 4 98.0188 96.3408 98.3009 0.357381 
32 4 98.9095 98.6761 95.8706 0.348263 
ITEM: TIMESTEP
142
ITEM: NUMBER OF ATOMS
33
ITEM: BOX BOUNDS pp pp pp
0.0000000000000000e+00 1.0000000000000000e+02
0.0000000000000000e+00 1.0000000000000000e+02
0.0000000000000000e+00 1.0000000000000000e+02
ITEM: ATOMS id type x y z q 
12 1 4.75387 0.971012 1.03043 -0.648271 
22 4 5.21825 1.64992 0.549794 0.358121 
21 1 97.808 2.63276 1.27888 -0.648818 
28 4 99.0849 4.90642 0.530518 0.364807 
29 4 97.5064 1.7324 1.45532 0.408434 
9 3 4.15247 99.7593 0.0530535 1.20994 
11 1 4.65969 98.29 0.660165 -0.645433 
24 4 4.84126 98.3063 1.59502 0.359283 
2 1 99.6963 99.2931 1.44259 -0.870254 
8 3 98.2779 98.8835 2.11665 1.21088 
13 1 97.924 97.3037 1.72457 -0.653306 
14 1 97.0945 99.852 1.43455 -0.694933 
15 1 98.2978 99.0445 3.77828 -0.607735 
25 4 98.0212 97.1039 0.785382 0.401298 
26 4 97.8771 98.3232 4.23649 0.367328 
27 4 96.8613 99.5966 0.527503 0.387425 
3 1 99.9937 1.87835 99.9274 -0.863589 
7 3 98.6721 2.82194 99.8673 1.19135 
19 1 97.7165 2.36741 98.565 -0.70418 
20 1 99.0654 4.4365 99.7021 -0.631179 
30 4 97.3893 3.11659 98.0698 0.363101 
33 4 97.2494 0.487833 98.4248 0.395157 
1 2 0.644224 100.073 99.9675 2.13547 
5 1 2.53254 99.828 100.006 -0.879822 
10 1 4.79806 99.9494 98.5257 -0.648828 
23 4 5.21715 99.1615 98.1918 0.359035 
4 1 99.7506 99.2572 98.4736 -0.883532 
6 3 98.3387 98.545 98.0981 1.1716 
16 1 98.253 98.3214 96.4474 -0.633429 
17 1 97.1028 99.5498 98.6241 -0.694401 
18 1 98.2206 97.0536 98.8593 -0.695256 
31 4 97.8261 96.3855 98.3002 0.364908 
32 4 98.9968 98.6814 95.9741 0.354825 
