ITEM: TIMESTEP
0
ITEM: NUMBER OF ATOMS
33
ITEM: BOX BOUNDS pp pp pp
0.0000000000000000e+00 1.0000000000000000e+02
0.0000000000000000e+00 1.0000000000000000e+02
0.0000000000000000e+00 1.0000000000000000e+02
ITEM: ATOMS id type x y z q 
12 1 4.55204 1.18856 0.871909 -0.634743 
22 4 5.45752 1.51699 0.845325 0.355707 
21 1 97.8966 2.70909 1.29334 -0.670167 
28 4 99.2424 4.93396 0.484772 0.360847 
29 4 97.6308 1.80605 1.56616 0.404536 
9 3 4.23609 99.8113 0.021197 1.22276 
11 1 4.8614 98.4337 0.699229 -0.657849 
24 4 4.43709 98.1005 1.49779 0.346762 
2 1 99.8035 99.1193 1.48867 -0.840676 
8 3 98.308 98.8099 2.11199 1.21439 
13 1 97.782 97.3124 1.69343 -0.651117 
14 1 97.2616 99.9807 1.53161 -0.716978 
15 1 98.4113 98.9552 3.74176 -0.606694 
25 4 97.711 97.1204 0.7411 0.400238 
26 4 97.6315 98.7192 4.2557 0.362233 
27 4 96.9416 99.8151 0.623784 0.379071 
3 1 0.021084 1.7821 99.8792 -0.837631 
7 3 98.7555 2.82182 99.9042 1.21106 
19 1 97.8618 2.37455 98.5499 -0.703961 
20 1 99.1686 4.39945 99.6859 -0.626123 
30 4 97.2259 3.03262 98.2424 0.355699 
33 4 97.3708 0.665643 98.4904 0.393653 
1 2 0.659298 99.9359 99.944 2.05198 
5 1 2.60426 99.7169 99.9502 -0.848056 
10 1 4.95828 99.9285 98.5412 -0.635573 
23 4 5.26507 99.0995 98.1568 0.356449 
4 1 99.7874 99.0336 98.4147 -0.861402 
6 3 98.2449 98.6122 98.0431 1.18582 
16 1 98.1012 98.3726 96.4182 -0.634809 
17 1 97.1963 99.7164 98.6811 -0.697165 
18 1 97.7836 97.2121 98.8139 -0.683919 
31 4 97.8621 96.3978 98.3042 0.357293 
32 4 98.8224 98.7006 95.8695 0.348354 
ITEM: TIMESTEP
164
ITEM: NUMBER OF ATOMS
33
ITEM: BOX BOUNDS pp pp pp
0.0000000000000000e+00 1.0000000000000000e+02
0.0000000000000000e+00 1.0000000000000000e+02
0.0000000000000000e+00 1.0000000000000000e+02
ITEM: ATOMS id type x y z q 
12 1 4.67819 0.940102 1.02619 -0.649161 
22 4 5.15925 1.61517 0.556526 0.358068 
21 1 97.9291 2.68623 1.2954 -0.648356 
28 4 99.3001 4.90558 0.542148 0.365028 
29 4 97.5903 1.79901 1.47093 0.408574 
9 3 4.1439 99.7006 0.0440224 1.20855 
11 1 4.72066 98.2562 0.64901 -0.643733 
24 4 4.83326 98.2555 1.59463 0.3589 
2 1 99.6766 99.2702 1.43922 -0.87038 
8 3 98.2474 98.919 2.1232 1.21071 
13 1 97.8256 97.3564 1.72902 -0.653293 
14 1 97.1014 99.9373 1.44983 -0.694702 
15 1 98.2831 99.0745 3.78504 -0.60772 
25 4 97.9088 97.1563 0.788274 0.400992 
26 4 97.8408 98.3664 4.24364 0.367386 
27 4 96.852 99.6918 0.544321 0.387353 
3 1 0.0715389 1.84494 99.9262 -0.86363 
7 3 98.7899 2.84311 99.8776 1.19153 
19 1 97.8072 2.4294 98.5818 -0.704187 
20 1 99.2474 4.44036 99.7125 -0.631401 
30 4 97.5131 3.19121 98.0852 0.363155 
33 4 97.2594 0.571625 98.4414 0.395224 
1 2 0.645079 100.013 99.9586 2.13465 
5 1 2.52307 99.6929 99.99 -0.879351 
10 1 4.78602 99.9273 98.5202 -0.64891 
23 4 5.23387 99.1574 98.1818 0.359875 
4 1 99.7083 99.2416 98.4676 -0.883469 
6 3 98.2662 98.5871 98.1021 1.17128 
16 1 98.1604 98.3716 96.4512 -0.633103 
17 1 97.0756 99.6397 98.6391 -0.694271 
18 1 98.0936 97.1001 98.8609 -0.695469 
31 4 97.6654 96.451 98.3042 0.364937 
32 4 98.9163 98.7015 95.9752 0.354936 
