ITEM: TIMESTEP
0
ITEM: NUMBER OF ATOMS
33
ITEM: BOX BOUNDS pp pp pp
0.0000000000000000e+00 1.0000000000000000e+02
0.0000000000000000e+00 1.0000000000000000e+02
0.0000000000000000e+00 1.0000000000000000e+02
ITEM: ATOMS id type x y z q 
12 1 4.44778 1.12944 0.869849 -0.63864 
22 4 5.33501 1.50516 0.858649 0.356264 
14 1 97.2758 0.065082 1.55086 -0.716797 
21 1 98.0345 2.76086 1.31383 -0.670018 
28 4 99.4727 4.92728 0.500147 0.361014 
29 4 97.7309 1.86932 1.58533 0.404687 
9 3 4.21631 99.739 0.012523 1.22045 
11 1 4.89877 98.393 0.697753 -0.655921 
24 4 4.46373 98.0221 1.47352 0.347454 
2 1 99.7772 99.0938 1.4773 -0.840331 
8 3 98.2762 98.8471 2.11517 1.21485 
13 1 97.6808 97.376 1.69627 -0.651265 
15 1 98.4027 98.9804 3.74439 -0.606594 
25 4 97.5942 97.1905 0.743918 0.400333 
26 4 97.6186 98.7758 4.26535 0.362096 
27 4 96.9397 99.9169 0.645885 0.378869 
3 1 0.103023 1.74748 99.877 -0.837898 
7 3 98.8845 2.84172 99.9172 1.21148 
19 1 97.9595 2.43957 98.5698 -0.703999 
20 1 99.3644 4.40049 99.7001 -0.626127 
30 4 97.3515 3.12676 98.2699 0.355569 
33 4 97.3897 0.754613 98.5101 0.393475 
1 2 0.65779 99.8749 99.9284 2.05203 
5 1 2.59206 99.5637 99.9172 -0.84751 
10 1 4.95566 99.9003 98.5452 -0.635606 
23 4 5.3042 99.0889 98.1589 0.357173 
4 1 99.7317 99.0211 98.4029 -0.860652 
6 3 98.1688 98.6676 98.0464 1.18596 
16 1 97.9986 98.4403 96.4222 -0.634864 
17 1 97.1749 99.8132 98.6986 -0.697112 
18 1 97.6555 97.2856 98.8172 -0.68403 
31 4 97.6955 96.4705 98.3044 0.357189 
32 4 98.7289 98.7369 95.8678 0.348476 
ITEM: TIMESTEP
130
ITEM: NUMBER OF ATOMS
33
ITEM: BOX BOUNDS pp pp pp
0.0000000000000000e+00 1.0000000000000000e+02
0.0000000000000000e+00 1.0000000000000000e+02
0.0000000000000000e+00 1.0000000000000000e+02
ITEM: ATOMS id type x y z q 
12 1 4.57828 0.917274 1.01799 -0.651566 
22 4 5.01944 1.62104 0.551355 0.358224 
14 1 97.1111 0.0366462 1.4671 -0.694025 
21 1 98.0517 2.74859 1.29593 -0.64795 
28 4 99.5546 4.88194 0.564443 0.365118 
29 4 97.6816 1.87635 1.48175 0.409096 
9 3 4.1247 99.6489 0.032817 1.20648 
11 1 4.81182 98.2464 0.620902 -0.641691 
24 4 4.9602 98.2593 1.56147 0.358797 
2 1 99.6389 99.208 1.45836 -0.87031 
8 3 98.1881 98.9432 2.13649 1.21079 
13 1 97.6717 97.412 1.73033 -0.654106 
15 1 98.2347 99.0786 3.7992 -0.60774 
25 4 97.7392 97.2145 0.78817 0.401092 
26 4 97.8235 98.3487 4.25278 0.367572 
27 4 96.8429 99.8112 0.561753 0.387249 
3 1 0.159059 1.77415 99.962 -0.864236 
7 3 98.9436 2.85019 99.8926 1.1926 
19 1 97.9614 2.49769 98.5785 -0.703979 
20 1 99.5024 4.41512 99.7356 -0.632202 
30 4 97.742 3.27311 98.0646 0.3632 
33 4 97.2935 0.67822 98.4531 0.395755 
1 2 0.639119 99.9156 99.9813 2.13407 
5 1 2.50688 99.5352 99.9941 -0.877393 
10 1 4.73058 99.9327 98.504 -0.649649 
23 4 5.20315 99.1888 98.142 0.360281 
4 1 99.6611 99.1961 98.4907 -0.883514 
6 3 98.1819 98.6381 98.1138 1.17164 
16 1 98.0708 98.443 96.4607 -0.633271 
17 1 97.0581 99.7591 98.6553 -0.6948 
18 1 97.91 97.1594 98.8598 -0.695051 
31 4 97.4284 96.549 98.3028 0.364639 
32 4 98.8567 98.7072 95.9921 0.354878 
