ITEM: TIMESTEP
0
ITEM: NUMBER OF ATOMS
33
ITEM: BOX BOUNDS pp pp pp
0.0000000000000000e+00 1.0000000000000000e+02
0.0000000000000000e+00 1.0000000000000000e+02
0.0000000000000000e+00 1.0000000000000000e+02
ITEM: ATOMS id type x y z q 
12 1 4.51676 1.16809 0.871322 -0.636089 
22 4 5.4163 1.51287 0.850411 0.355878 
14 1 97.2653 0.011041 1.53887 -0.716865 
21 1 97.9451 2.72821 1.29997 -0.670148 
28 4 99.3236 4.93289 0.489422 0.360908 
29 4 97.6656 1.82916 1.57245 0.404579 
9 3 4.23021 99.7855 0.01844 1.22209 
11 1 4.87559 98.4188 0.699224 -0.657178 
24 4 4.44788 98.0735 1.49078 0.34698 
2 1 99.7935 99.111 1.48455 -0.840621 
8 3 98.296 98.8235 2.11338 1.2146 
13 1 97.7455 97.3349 1.69487 -0.651174 
15 1 98.4079 98.9649 3.74295 -0.606674 
25 4 97.669 97.145 0.742534 0.400279 
26 4 97.6266 98.7401 4.25956 0.362186 
27 4 96.9396 99.8515 0.632 0.378976 
3 1 0.050313 1.77041 99.8777 -0.837689 
7 3 98.8009 2.8295 99.9082 1.21117 
19 1 97.8959 2.39778 98.5564 -0.703951 
20 1 99.2376 4.4008 99.6902 -0.626098 
30 4 97.2694 3.0661 98.2517 0.355636 
33 4 97.3771 0.696654 98.4975 0.393533 
1 2 0.658871 99.9144 99.9383 2.05203 
5 1 2.60054 99.663 99.9388 -0.847942 
10 1 4.95876 99.9176 98.5428 -0.635576 
23 4 5.27975 99.0944 98.1577 0.356717 
4 1 99.7678 99.0284 98.4104 -0.861121 
6 3 98.2177 98.6308 98.0445 1.18584 
16 1 98.0642 98.3952 96.4198 -0.63481 
17 1 97.1884 99.75 98.6876 -0.697172 
18 1 97.738 97.237 98.8155 -0.683936 
31 4 97.8034 96.4221 98.3049 0.35725 
32 4 98.7885 98.7124 95.8689 0.348399 
ITEM: TIMESTEP
190
ITEM: NUMBER OF ATOMS
33
ITEM: BOX BOUNDS pp pp pp
0.0000000000000000e+00 1.0000000000000000e+02
0.0000000000000000e+00 1.0000000000000000e+02
0.0000000000000000e+00 1.0000000000000000e+02
ITEM: ATOMS id type x y z q 
12 1 4.64559 0.928698 1.0211 -0.650374 
22 4 5.11042 1.61392 0.549902 0.358134 
14 1 97.1001 -0.0249174 1.45349 -0.693963 
21 1 97.9652 2.7124 1.29112 -0.648375 
28 4 99.37 4.90673 0.546093 0.365009 
29 4 97.6179 1.82963 1.47211 0.408901 
9 3 4.13649 99.6774 0.0411502 1.20789 
11 1 4.75311 98.2484 0.643998 -0.642826 
24 4 4.90262 98.2636 1.58446 0.358894 
2 1 99.6604 99.2517 1.45285 -0.870587 
8 3 98.2205 98.9302 2.12937 1.21053 
13 1 97.7695 97.3769 1.73013 -0.654072 
15 1 98.2575 99.0768 3.79208 -0.607512 
25 4 97.8483 97.1776 0.789211 0.401034 
26 4 97.8619 98.3401 4.24833 0.367468 
27 4 96.8438 99.7347 0.548462 0.38738 
3 1 0.101409 1.82209 99.9439 -0.86368 
7 3 98.843 2.84842 99.8816 1.19177 
19 1 97.8646 2.45629 98.5758 -0.704059 
20 1 99.3364 4.43523 99.719 -0.631676 
30 4 97.5978 3.22413 98.073 0.363062 
33 4 97.2716 0.611661 98.4448 0.39548 
1 2 0.641875 99.9804 99.9736 2.13463 
5 1 2.51567 99.6346 99.9953 -0.878498 
10 1 4.76398 99.9207 98.5138 -0.649271 
23 4 5.21093 99.1556 98.1636 0.359847 
4 1 99.6929 99.2268 98.4812 -0.88331 
6 3 98.2377 98.6068 98.1068 1.17147 
16 1 98.1346 98.3982 96.4549 -0.633267 
17 1 97.069 99.6839 98.6431 -0.69435 
18 1 98.0284 97.1223 98.8612 -0.695357 
31 4 97.5837 96.4855 98.303 0.364732 
32 4 98.9046 98.7009 95.9832 0.354933 
