ITEM: TIMESTEP
0
ITEM: NUMBER OF ATOMS
33
ITEM: BOX BOUNDS pp pp pp
0.0000000000000000e+00 1.0000000000000000e+02
0.0000000000000000e+00 1.0000000000000000e+02
0.0000000000000000e+00 1.0000000000000000e+02
ITEM: ATOMS id type x y z q 
12 1 4.32052 1.06196 0.865787 -0.64345 
22 4 5.18338 1.49083 0.869534 0.357019 
14 1 97.3024 0.155026 1.56759 -0.716963 
21 1 98.1863 2.81271 1.33744 -0.669708 
27 4 96.9512 0.027977 0.665133 0.378813 
28 4 99.7291 4.90628 0.519869 0.361133 
29 4 97.8439 1.93512 1.60821 0.404838 
9 3 4.18382 99.6624 0.001832 1.21653 
11 1 4.92841 98.3545 0.694968 -0.653616 
24 4 4.48914 97.9434 1.44778 0.348334 
2 1 99.7517 99.0604 1.46589 -0.839453 
8 3 98.2465 98.8865 2.11752 1.21508 
13 1 97.5742 97.4486 1.69937 -0.651135 
15 1 98.3949 99.0071 3.74592 -0.60644 
25 4 97.4702 97.2717 0.747148 0.400266 
26 4 97.6065 98.8398 4.27363 0.361958 
3 1 0.187241 1.70275 99.8777 -0.838634 
7 3 99.0267 2.85748 99.9334 1.21234 
19 1 98.0709 2.5091 98.5926 -0.70386 
20 1 99.5828 4.39098 99.7184 -0.626212 
30 4 97.4948 3.22702 98.3016 0.355535 
33 4 97.4186 0.853651 98.529 0.393528 
1 2 0.654542 99.8071 99.9127 2.05169 
5 1 2.57296 99.3975 99.8803 -0.845836 
10 1 4.9382 99.875 98.5489 -0.635621 
23 4 5.329 99.0853 98.1581 0.357926 
4 1 99.6733 99.0092 98.3916 -0.859796 
6 3 98.0916 98.7335 98.0492 1.18612 
16 1 97.8953 98.5219 96.4257 -0.634929 
17 1 97.1603 99.9229 98.7151 -0.697157 
18 1 97.5191 97.3747 98.8195 -0.683917 
31 4 97.5183 96.5602 98.304 0.357039 
32 4 98.6347 98.7837 95.8659 0.348579 
ITEM: TIMESTEP
205
ITEM: NUMBER OF ATOMS
33
ITEM: BOX BOUNDS pp pp pp
0.0000000000000000e+00 1.0000000000000000e+02
0.0000000000000000e+00 1.0000000000000000e+02
0.0000000000000000e+00 1.0000000000000000e+02
ITEM: ATOMS id type x y z q 
12 1 4.47193 0.860067 1.00996 -0.652913 
22 4 4.93952 1.56001 0.563533 0.358378 
14 1 97.1241 0.132832 1.48468 -0.693436 
21 1 98.1912 2.79774 1.31339 -0.648073 
27 4 96.8428 -0.0770564 0.579499 0.387007 
28 4 99.7733 4.87044 0.589107 0.365352 
29 4 97.782 1.94268 1.4973 0.409194 
9 3 4.09472 99.573 0.0159244 1.20144 
11 1 4.86414 98.2075 0.590147 -0.639466 
24 4 4.93873 98.18 1.53899 0.358468 
2 1 99.6149 99.1974 1.46633 -0.870198 
8 3 98.1552 98.991 2.14556 1.21063 
13 1 97.5735 97.4853 1.73337 -0.654436 
15 1 98.2123 99.1139 3.80964 -0.606986 
25 4 97.6175 97.2947 0.788416 0.400873 
26 4 97.7931 98.3866 4.26003 0.367658 
3 1 0.251762 1.73591 99.9717 -0.863592 
7 3 99.0852 2.86548 99.9093 1.19257 
19 1 98.0849 2.56488 98.5958 -0.704025 
20 1 99.7119 4.40574 99.7596 -0.6318 
30 4 97.8988 3.35251 98.0872 0.363189 
33 4 97.3233 0.783768 98.4716 0.396089 
1 2 0.640769 99.856 99.9844 2.13289 
5 1 2.48495 99.3698 99.9831 -0.875244 
10 1 4.67394 99.9062 98.4869 -0.64985 
23 4 5.17079 99.1868 98.1078 0.361066 
4 1 99.6206 99.1932 98.4957 -0.882973 
6 3 98.1156 98.7069 98.1203 1.17155 
16 1 97.9906 98.5249 96.4668 -0.633313 
17 1 97.0464 99.8758 98.6715 -0.694546 
18 1 97.7777 97.2382 98.8591 -0.695267 
31 4 97.2745 96.6504 98.297 0.364722 
32 4 98.7901 98.7435 95.9978 0.355057 
