ITEM: TIMESTEP
0
ITEM: NUMBER OF ATOMS
33
ITEM: BOX BOUNDS pp pp pp
0.0000000000000000e+00 1.0000000000000000e+02
0.0000000000000000e+00 1.0000000000000000e+02
0.0000000000000000e+00 1.0000000000000000e+02
ITEM: ATOMS id type x y z q 
12 1 4.40251 1.10455 0.867896 -0.640398 
22 4 5.28142 1.49943 0.86259 0.356392 
14 1 97.2841 0.099816 1.55717 -0.716867 
21 1 98.0917 2.7809 1.32151 -0.669965 
28 4 99.5675 4.9214 0.506356 0.361078 
29 4 97.773 1.89454 1.59264 0.404765 
9 3 4.20549 99.7095 0.008635 1.21919 
11 1 4.91135 98.3777 0.697322 -0.655222 
24 4 4.47847 97.9968 1.46947 0.34773 
2 1 99.767 99.0828 1.4736 -0.840049 
8 3 98.2641 98.863 2.11645 1.21496 
13 1 97.6401 97.4036 1.69801 -0.651261 
15 1 98.3986 98.9921 3.74536 -0.606539 
25 4 97.5471 97.2208 0.745747 0.40033 
26 4 97.6127 98.8014 4.26884 0.362044 
27 4 96.9421 99.959 0.653256 0.378836 
3 1 0.136062 1.73163 99.8761 -0.838017 
7 3 98.9383 2.84832 99.9221 1.21168 
19 1 98.0014 2.46569 98.5772 -0.703967 
20 1 99.4463 4.39824 99.7058 -0.626107 
30 4 97.4053 3.16466 98.2805 0.355513 
33 4 97.3997 0.791401 98.5167 0.393433 
1 2 0.656654 99.8495 99.9226 2.05205 
5 1 2.5855 99.5021 99.904 -0.846858 
10 1 4.95026 99.8879 98.5461 -0.635567 
23 4 5.31688 99.0843 98.1603 0.357534 
4 1 99.7093 99.0154 98.3993 -0.860324 
6 3 98.1389 98.691 98.0479 1.18602 
16 1 97.9589 98.4689 96.424 -0.634928 
17 1 97.1683 99.8539 98.7048 -0.697164 
18 1 97.6031 97.3178 98.819 -0.684022 
31 4 97.6269 96.5026 98.3051 0.357167 
32 4 98.6926 98.7527 95.8675 0.348515 
ITEM: TIMESTEP
264
ITEM: NUMBER OF ATOMS
33
ITEM: BOX BOUNDS pp pp pp
0.0000000000000000e+00 1.0000000000000000e+02
0.0000000000000000e+00 1.0000000000000000e+02
0.0000000000000000e+00 1.0000000000000000e+02
ITEM: ATOMS id type x y z q 
12 1 4.54834 0.892043 1.00701 -0.65207 
22 4 5.00536 1.58718 0.542638 0.358251 
14 1 97.1105 0.0723712 1.47089 -0.693685 
21 1 98.0969 2.76813 1.30315 -0.648025 
28 4 99.6156 4.88753 0.572765 0.365219 
29 4 97.7128 1.90142 1.48691 0.409132 
9 3 4.11437 99.6131 0.0264043 1.20451 
11 1 4.82771 98.2239 0.615308 -0.640715 
24 4 4.94985 98.2278 1.55972 0.358657 
2 1 99.6291 99.2155 1.46504 -0.870405 
8 3 98.1743 98.966 2.14016 1.21065 
13 1 97.6421 97.441 1.73258 -0.654369 
15 1 98.2215 99.0989 3.80372 -0.607235 
25 4 97.7027 97.2455 0.789567 0.400907 
26 4 97.8132 98.3667 4.25613 0.367592 
27 4 96.8398 99.8507 0.565264 0.387154 
3 1 0.193146 1.76857 99.9681 -0.863654 
7 3 98.9909 2.85968 99.9003 1.19213 
19 1 98.0026 2.52256 98.5865 -0.704057 
20 1 99.5685 4.41851 99.7449 -0.631827 
30 4 97.7909 3.30258 98.0763 0.363114 
33 4 97.3027 0.715883 98.4597 0.395822 
1 2 0.640884 99.9018 99.986 2.13363 
5 1 2.49838 99.4726 99.9938 -0.876733 
10 1 4.70929 99.9047 98.4945 -0.649649 
23 4 5.18456 99.1641 98.1288 0.360532 
4 1 99.6493 99.205 98.4936 -0.883119 
6 3 98.1634 98.6651 98.116 1.17151 
16 1 98.0491 98.4722 96.463 -0.633278 
17 1 97.0534 99.7997 98.6587 -0.694427 
18 1 97.8741 97.1893 98.8612 -0.69532 
31 4 97.3898 96.5833 98.3017 0.364724 
32 4 98.8365 98.7299 95.9935 0.355044 
