ITEM: TIMESTEP
0
ITEM: NUMBER OF ATOMS
33
ITEM: BOX BOUNDS pp pp pp
0.0000000000000000e+00 1.0000000000000000e+02
0.0000000000000000e+00 1.0000000000000000e+02
0.0000000000000000e+00 1.0000000000000000e+02
ITEM: ATOMS id type x y z q 
12 1 4.44778 1.12944 0.869849 -0.63864 
22 4 5.33501 1.50516 0.858649 0.356264 
14 1 97.2758 0.065082 1.55086 -0.716797 
21 1 98.0345 2.76086 1.31383 -0.670018 
28 4 99.4727 4.92728 0.500147 0.361014 
29 4 97.7309 1.86932 1.58533 0.404687 
9 3 4.21631 99.739 0.012523 1.22045 
11 1 4.89877 98.393 0.697753 -0.655921 
24 4 4.46373 98.0221 1.47352 0.347454 
2 1 99.7772 99.0938 1.4773 -0.840331 
8 3 98.2762 98.8471 2.11517 1.21485 
13 1 97.6808 97.376 1.69627 -0.651265 
15 1 98.4027 98.9804 3.74439 -0.606594 
25 4 97.5942 97.1905 0.743918 0.400333 
26 4 97.6186 98.7758 4.26535 0.362096 
27 4 96.9397 99.9169 0.645885 0.378869 
3 1 0.103023 1.74748 99.877 -0.837898 
7 3 98.8845 2.84172 99.9172 1.21148 
19 1 97.9595 2.43957 98.5698 -0.703999 
20 1 99.3644 4.40049 99.7001 -0.626127 
30 4 97.3515 3.12676 98.2699 0.355569 
33 4 97.3897 0.754613 98.5101 0.393475 
1 2 0.65779 99.8749 99.9284 2.05203 
5 1 2.59206 99.5637 99.9172 -0.84751 
10 1 4.95566 99.9003 98.5452 -0.635606 
23 4 5.3042 99.0889 98.1589 0.357173 
4 1 99.7317 99.0211 98.4029 -0.860652 
6 3 98.1688 98.6676 98.0464 1.18596 
16 1 97.9986 98.4403 96.4222 -0.634864 
17 1 97.1749 99.8132 98.6986 -0.697112 
18 1 97.6555 97.2856 98.8172 -0.68403 
31 4 97.6955 96.4705 98.3044 0.357189 
32 4 98.7289 98.7369 95.8678 0.348476 
ITEM: TIMESTEP
105
ITEM: NUMBER OF ATOMS
33
ITEM: BOX BOUNDS pp pp pp
0.0000000000000000e+00 1.0000000000000000e+02
0.0000000000000000e+00 1.0000000000000000e+02
0.0000000000000000e+00 1.0000000000000000e+02
ITEM: ATOMS id type x y z q 
12 1 4.52502 0.94097 1.0099 -0.650012 
22 4 5.01289 1.62271 0.5572 0.35844 
14 1 97.1146 0.038183 1.46549 -0.693723 
21 1 98.0817 2.7414 1.30693 -0.648121 
28 4 99.5702 4.88075 0.561235 0.365317 
29 4 97.7008 1.8725 1.48783 0.409083 
9 3 4.11782 99.6532 0.0287608 1.20359 
11 1 4.83472 98.2692 0.625788 -0.640923 
24 4 4.81726 98.2072 1.57571 0.358149 
2 1 99.645 99.2177 1.45208 -0.870399 
8 3 98.1965 98.9488 2.13354 1.2101 
13 1 97.6853 97.4145 1.73298 -0.654063 
15 1 98.2491 99.0885 3.7965 -0.607221 
25 4 97.7462 97.2168 0.790265 0.400876 
26 4 97.8333 98.3627 4.25283 0.367497 
27 4 96.8469 99.8114 0.559996 0.387184 
3 1 0.175741 1.77468 99.946 -0.863791 
7 3 98.9567 2.84753 99.8933 1.19225 
19 1 97.9568 2.49508 98.5921 -0.70407 
20 1 99.5086 4.41517 99.7323 -0.631621 
30 4 97.7206 3.27381 98.091 0.363098 
33 4 97.2949 0.675351 98.4556 0.395658 
1 2 0.644765 99.9137 99.9686 2.13339 
5 1 2.50414 99.4939 99.9856 -0.878195 
10 1 4.72331 99.947 98.5006 -0.648665 
23 4 5.23152 99.2198 98.1518 0.360937 
4 1 99.6615 99.2006 98.4786 -0.88304 
6 3 98.1826 98.636 98.1096 1.17101 
16 1 98.0642 98.4327 96.4576 -0.633086 
17 1 97.0577 99.7559 98.6539 -0.694166 
18 1 97.9223 97.1584 98.8624 -0.69546 
31 4 97.4532 96.5388 98.3049 0.364799 
32 4 98.8453 98.7004 95.983 0.355183 
