ITEM: TIMESTEP
0
ITEM: NUMBER OF ATOMS
33
ITEM: BOX BOUNDS pp pp pp
0.0000000000000000e+00 1.0000000000000000e+02
0.0000000000000000e+00 1.0000000000000000e+02
0.0000000000000000e+00 1.0000000000000000e+02
ITEM: ATOMS id type x y z q 
12 1 4.55204 1.18856 0.871909 -0.634743 
22 4 5.45752 1.51699 0.845325 0.355707 
21 1 97.8966 2.70909 1.29334 -0.670167 
28 4 99.2424 4.93396 0.484772 0.360847 
29 4 97.6308 1.80605 1.56616 0.404536 
9 3 4.23609 99.8113 0.021197 1.22276 
11 1 4.8614 98.4337 0.699229 -0.657849 
24 4 4.43709 98.1005 1.49779 0.346762 
2 1 99.8035 99.1193 1.48867 -0.840676 
8 3 98.308 98.8099 2.11199 1.21439 
13 1 97.782 97.3124 1.69343 -0.651117 
14 1 97.2616 99.9807 1.53161 -0.716978 
15 1 98.4113 98.9552 3.74176 -0.606694 
25 4 97.711 97.1204 0.7411 0.400238 
26 4 97.6315 98.7192 4.2557 0.362233 
27 4 96.9416 99.8151 0.623784 0.379071 
3 1 0.021084 1.7821 99.8792 -0.837631 
7 3 98.7555 2.82182 99.9042 1.21106 
19 1 97.8618 2.37455 98.5499 -0.703961 
20 1 99.1686 4.39945 99.6859 -0.626123 
30 4 97.2259 3.03262 98.2424 0.355699 
33 4 97.3708 0.665643 98.4904 0.393653 
1 2 0.659298 99.9359 99.944 2.05198 
5 1 2.60426 99.7169 99.9502 -0.848056 
10 1 4.95828 99.9285 98.5412 -0.635573 
23 4 5.26507 99.0995 98.1568 0.356449 
4 1 99.7874 99.0336 98.4147 -0.861402 
6 3 98.2449 98.6122 98.0431 1.18582 
16 1 98.1012 98.3726 96.4182 -0.634809 
17 1 97.1963 99.7164 98.6811 -0.697165 
18 1 97.7836 97.2121 98.8139 -0.683919 
31 4 97.8621 96.3978 98.3042 0.357293 
32 4 98.8224 98.7006 95.8695 0.348354 
ITEM: TIMESTEP
151
ITEM: NUMBER OF ATOMS
33
ITEM: BOX BOUNDS pp pp pp
0.0000000000000000e+00 1.0000000000000000e+02
0.0000000000000000e+00 1.0000000000000000e+02
0.0000000000000000e+00 1.0000000000000000e+02
ITEM: ATOMS id type x y z q 
12 1 4.6774 0.933601 1.02883 -0.650093 
22 4 5.14385 1.61682 0.556504 0.358021 
21 1 97.9263 2.69086 1.29029 -0.648849 
28 4 99.2775 4.9127 0.542761 0.365001 
29 4 97.5867 1.80419 1.46696 0.408745 
9 3 4.14141 99.6956 0.0463872 1.20859 
11 1 4.72237 98.2531 0.652226 -0.6435 
24 4 4.89742 98.2759 1.58799 0.359125 
2 1 99.6697 99.2689 1.44622 -0.870584 
8 3 98.2373 98.9215 2.12499 1.21071 
13 1 97.8157 97.3586 1.73098 -0.653942 
14 1 97.0964 99.9423 1.44667 -0.693861 
15 1 98.2694 99.0718 3.78758 -0.607467 
25 4 97.894 97.1596 0.790206 0.401363 
26 4 97.8804 98.3312 4.24317 0.367588 
27 4 96.85 99.698 0.54003 0.387197 
3 1 0.0696899 1.84089 99.929 -0.863375 
7 3 98.7929 2.84469 99.8757 1.1916 
19 1 97.8148 2.43636 98.5744 -0.703983 
20 1 99.2553 4.44107 99.7153 -0.63151 
30 4 97.5262 3.20031 98.0779 0.362949 
33 4 97.2631 0.579334 98.4359 0.39545 
1 2 0.641725 100.009 99.9659 2.13422 
5 1 2.52027 99.688 99.9944 -0.878297 
10 1 4.78109 99.9241 98.5218 -0.649257 
23 4 5.21922 99.1516 98.1772 0.359515 
4 1 99.7076 99.2363 98.4733 -0.88301 
6 3 98.263 98.5888 98.1034 1.17119 
16 1 98.1619 98.3702 96.4531 -0.633435 
17 1 97.0765 99.6482 98.6348 -0.694189 
18 1 98.0825 97.1032 98.8636 -0.695675 
31 4 97.666 96.4523 98.3005 0.364863 
32 4 98.9251 98.6856 95.979 0.354905 
