ITEM: TIMESTEP
0
ITEM: NUMBER OF ATOMS
33
ITEM: BOX BOUNDS pp pp pp
0.0000000000000000e+00 1.0000000000000000e+02
0.0000000000000000e+00 1.0000000000000000e+02
0.0000000000000000e+00 1.0000000000000000e+02
ITEM: ATOMS id type x y z q 
12 1 4.18517 0.993545 0.860229 -0.64834 
22 4 5.01945 1.47536 0.875755 0.357971 
14 1 97.3357 0.238046 1.58417 -0.717071 
21 1 98.3363 2.85519 1.36253 -0.669522 
27 4 96.9727 0.133381 0.683453 0.378755 
28 4 99.9741 4.87393 0.541617 0.361187 
29 4 97.9566 1.9931 1.63312 0.404944 
11 1 4.94321 98.3222 0.693317 -0.651334 
24 4 4.50121 97.8697 1.4203 0.349337 
2 1 99.7284 99.028 1.4534 -0.838509 
8 3 98.2233 98.9235 2.11964 1.21535 
13 1 97.4788 97.5211 1.70299 -0.650953 
15 1 98.3929 99.03 3.74697 -0.606298 
25 4 97.3572 97.354 0.751127 0.400142 
26 4 97.6031 98.8957 4.28181 0.361914 
3 1 0.266573 1.65722 99.8769 -0.839102 
7 3 99.1644 2.86679 99.9505 1.21304 
17 1 97.156 0.028947 98.7327 -0.697453 
19 1 98.1803 2.57303 98.6173 -0.703598 
20 1 99.7928 4.37255 99.7385 -0.626095 
30 4 97.6327 3.31784 98.3393 0.355554 
33 4 97.4555 0.947673 98.5484 0.39353 
1 2 0.649539 99.7432 99.8962 2.05095 
5 1 2.54867 99.2405 99.8433 -0.843018 
9 3 4.14176 99.5903 99.991 1.21137 
10 1 4.90888 99.8543 98.5532 -0.635664 
23 4 5.34159 99.088 98.1599 0.358583 
4 1 99.6198 98.9989 98.38 -0.858857 
6 3 98.0236 98.8003 98.0518 1.18613 
16 1 97.8022 98.6076 96.4293 -0.635001 
18 1 97.3942 97.4663 98.8212 -0.68367 
31 4 97.3521 96.655 98.3025 0.356991 
32 4 98.5486 98.8354 95.8639 0.348725 
ITEM: TIMESTEP
168
ITEM: NUMBER OF ATOMS
33
ITEM: BOX BOUNDS pp pp pp
0.0000000000000000e+00 1.0000000000000000e+02
0.0000000000000000e+00 1.0000000000000000e+02
0.0000000000000000e+00 1.0000000000000000e+02
ITEM: ATOMS id type x y z q 
12 1 4.33396 0.858821 0.989755 -0.64811 
22 4 4.90253 1.51483 0.597551 0.359346 
14 1 97.1667 0.217848 1.50892 -0.694255 
21 1 98.3659 2.8263 1.35997 -0.647928 
27 4 96.8655 0.0261533 0.60608 0.387463 
28 4 100.042 4.82828 0.599984 0.365681 
29 4 97.9129 1.99242 1.53897 0.409085 
11 1 4.88993 98.2152 0.607602 -0.639553 
24 4 4.59951 97.9385 1.47078 0.357601 
2 1 99.6179 99.1869 1.43543 -0.870609 
8 3 98.1656 99.0334 2.14358 1.21046 
13 1 97.517 97.5538 1.73715 -0.653911 
15 1 98.2571 99.1489 3.80651 -0.607268 
25 4 97.5438 97.3618 0.791856 0.400926 
26 4 97.745 98.4877 4.26272 0.367703 
3 1 0.329329 1.70307 99.9276 -0.863376 
7 3 99.2076 2.87827 99.9234 1.19405 
17 1 97.0462 -0.0306185 98.6961 -0.695141 
19 1 98.1468 2.63367 98.6463 -0.703406 
20 1 99.8917 4.3931 99.766 -0.631457 
30 4 97.9671 3.43643 98.1598 0.363475 
33 4 97.3524 0.868027 98.4967 0.395846 
1 2 0.648992 99.8105 99.9419 2.13151 
5 1 2.46975 99.2394 99.952 -0.878007 
9 3 4.06498 99.5359 100.008 1.19518 
10 1 4.65485 99.8846 98.4855 -0.648209 
23 4 5.24118 99.2139 98.1473 0.361752 
4 1 99.5879 99.1904 98.4632 -0.882487 
6 3 98.0579 98.763 98.1184 1.17159 
16 1 97.8895 98.5943 96.4673 -0.633155 
18 1 97.6809 97.3058 98.8611 -0.695309 
31 4 97.1436 96.739 98.3088 0.364953 
32 4 98.6815 98.801 95.9805 0.355559 
