ITEM: TIMESTEP
0
ITEM: NUMBER OF ATOMS
33
ITEM: BOX BOUNDS pp pp pp
0.0000000000000000e+00 1.0000000000000000e+02
0.0000000000000000e+00 1.0000000000000000e+02
0.0000000000000000e+00 1.0000000000000000e+02
ITEM: ATOMS id type x y z q 
12 1 4.18517 0.993545 0.860229 -0.64834 
22 4 5.01945 1.47536 0.875755 0.357971 
14 1 97.3357 0.238046 1.58417 -0.717071 
21 1 98.3363 2.85519 1.36253 -0.669522 
27 4 96.9727 0.133381 0.683453 0.378755 
28 4 99.9741 4.87393 0.541617 0.361187 
29 4 97.9566 1.9931 1.63312 0.404944 
11 1 4.94321 98.3222 0.693317 -0.651334 
24 4 4.50121 97.8697 1.4203 0.349337 
2 1 99.7284 99.028 1.4534 -0.838509 
8 3 98.2233 98.9235 2.11964 1.21535 
13 1 97.4788 97.5211 1.70299 -0.650953 
15 1 98.3929 99.03 3.74697 -0.606298 
25 4 97.3572 97.354 0.751127 0.400142 
26 4 97.6031 98.8957 4.28181 0.361914 
3 1 0.266573 1.65722 99.8769 -0.839102 
7 3 99.1644 2.86679 99.9505 1.21304 
17 1 97.156 0.028947 98.7327 -0.697453 
19 1 98.1803 2.57303 98.6173 -0.703598 
20 1 99.7928 4.37255 99.7385 -0.626095 
30 4 97.6327 3.31784 98.3393 0.355554 
33 4 97.4555 0.947673 98.5484 0.39353 
1 2 0.649539 99.7432 99.8962 2.05095 
5 1 2.54867 99.2405 99.8433 -0.843018 
9 3 4.14176 99.5903 99.991 1.21137 
10 1 4.90888 99.8543 98.5532 -0.635664 
23 4 5.34159 99.088 98.1599 0.358583 
4 1 99.6198 98.9989 98.38 -0.858857 
6 3 98.0236 98.8003 98.0518 1.18613 
16 1 97.8022 98.6076 96.4293 -0.635001 
18 1 97.3942 97.4663 98.8212 -0.68367 
31 4 97.3521 96.655 98.3025 0.356991 
32 4 98.5486 98.8354 95.8639 0.348725 
ITEM: TIMESTEP
159
ITEM: NUMBER OF ATOMS
33
ITEM: BOX BOUNDS pp pp pp
0.0000000000000000e+00 1.0000000000000000e+02
0.0000000000000000e+00 1.0000000000000000e+02
0.0000000000000000e+00 1.0000000000000000e+02
ITEM: ATOMS id type x y z q 
12 1 4.33567 0.858729 0.988918 -0.647985 
22 4 4.90414 1.5137 0.594895 0.359329 
14 1 97.1633 0.217634 1.50826 -0.69402 
21 1 98.3684 2.82392 1.36233 -0.647814 
27 4 96.8642 0.0264823 0.604755 0.387339 
28 4 100.042 4.83021 0.600578 0.365704 
29 4 97.9119 1.99108 1.53786 0.408895 
11 1 4.88846 98.2131 0.608391 -0.63952 
24 4 4.59317 97.9327 1.46864 0.357602 
2 1 99.617 99.1912 1.43521 -0.870878 
8 3 98.1647 99.0352 2.14302 1.21027 
13 1 97.5193 97.554 1.7368 -0.653839 
15 1 98.2559 99.1507 3.80623 -0.607295 
25 4 97.5475 97.3623 0.791563 0.400863 
26 4 97.7475 98.4876 4.26287 0.367895 
3 1 0.329963 1.70573 99.9237 -0.863058 
7 3 99.2066 2.87973 99.9236 1.19375 
17 1 97.0444 -0.0311922 98.6947 -0.694923 
19 1 98.1434 2.63489 98.6483 -0.703302 
20 1 99.8868 4.39631 99.7667 -0.631452 
30 4 97.9615 3.43732 98.162 0.363559 
33 4 97.3513 0.868187 98.4983 0.395623 
1 2 0.64957 99.813 99.942 2.13107 
5 1 2.46985 99.2399 99.9529 -0.878148 
9 3 4.06542 99.5349 100.008 1.19499 
10 1 4.65732 99.8806 98.4861 -0.648074 
23 4 5.24402 99.2087 98.1501 0.361795 
4 1 99.5884 99.1941 98.4625 -0.882184 
6 3 98.059 98.7638 98.1184 1.17153 
16 1 97.8904 98.5916 96.4679 -0.633088 
18 1 97.6864 97.3056 98.8615 -0.695346 
31 4 97.1501 96.7372 98.3098 0.365046 
32 4 98.6804 98.8018 95.9794 0.355668 
