ITEM: TIMESTEP
0
ITEM: NUMBER OF ATOMS
33
ITEM: BOX BOUNDS pp pp pp
0.0000000000000000e+00 1.0000000000000000e+02
0.0000000000000000e+00 1.0000000000000000e+02
0.0000000000000000e+00 1.0000000000000000e+02
ITEM: ATOMS id type x y z q 
12 1 4.68027 1.26568 0.875263 -0.629805 
22 4 5.60541 1.53036 0.824725 0.355043 
21 1 97.7046 2.61898 1.26905 -0.670098 
28 4 98.9097 4.92447 0.470215 0.360645 
29 4 97.4969 1.70105 1.54225 0.404495 
9 3 4.24876 99.9163 0.031761 1.2243 
11 1 4.79139 98.4975 0.697121 -0.660751 
24 4 4.39039 98.2127 1.5259 0.346057 
2 1 99.8437 99.1551 1.50349 -0.840948 
8 3 98.3614 98.753 2.10529 1.21358 
13 1 97.9374 97.2242 1.68423 -0.651007 
14 1 97.2522 99.854 1.50519 -0.717277 
15 1 98.431 98.9086 3.73591 -0.606674 
25 4 97.8902 97.0259 0.731716 0.400206 
26 4 97.6596 98.6256 4.23885 0.362444 
27 4 96.9529 99.6653 0.5948 0.379176 
1 2 0.659937 0.025582 99.9665 2.05144 
3 1 99.9042 1.82722 99.8887 -0.837082 
7 3 98.5738 2.78269 99.8914 1.21047 
19 1 97.7301 2.27458 98.5265 -0.703907 
20 1 98.8867 4.38326 99.6728 -0.626229 
30 4 97.0595 2.89076 98.2062 0.35603 
33 4 97.3481 0.537009 98.4637 0.393744 
5 1 2.61343 99.9358 99.9949 -0.847176 
10 1 4.94239 99.9786 98.5348 -0.635721 
23 4 5.19614 99.1305 98.1536 0.355412 
4 1 99.865 99.0663 98.4306 -0.862704 
6 3 98.3596 98.5437 98.0365 1.18592 
16 1 98.2573 98.2901 96.4106 -0.634769 
17 1 97.2315 99.5789 98.6542 -0.696454 
18 1 97.9794 97.1185 98.8054 -0.684016 
31 4 98.1149 96.3099 98.2986 0.357444 
32 4 98.9624 98.6648 95.8712 0.348217 
ITEM: TIMESTEP
115
ITEM: NUMBER OF ATOMS
33
ITEM: BOX BOUNDS pp pp pp
0.0000000000000000e+00 1.0000000000000000e+02
0.0000000000000000e+00 1.0000000000000000e+02
0.0000000000000000e+00 1.0000000000000000e+02
ITEM: ATOMS id type x y z q 
12 1 4.79479 0.995118 1.0307 -0.646172 
22 4 5.2722 1.66411 0.548836 0.358267 
21 1 97.7554 2.58251 1.2901 -0.647623 
28 4 99.0188 4.88745 0.525489 0.364933 
29 4 97.4712 1.67509 1.4592 0.407593 
9 3 4.15707 99.802 0.0528527 1.21011 
11 1 4.60731 98.3155 0.663591 -0.646386 
24 4 4.71315 98.308 1.60995 0.359476 
2 1 99.7244 99.3149 1.43014 -0.869617 
8 3 98.3242 98.8572 2.11128 1.21061 
13 1 98.0186 97.2678 1.71647 -0.651131 
14 1 97.1062 99.7853 1.43387 -0.697094 
15 1 98.3343 99.0269 3.77204 -0.607822 
25 4 98.1333 97.0701 0.778801 0.40093 
26 4 97.7988 98.3836 4.22642 0.366774 
27 4 96.8818 99.5233 0.526256 0.387341 
1 2 0.646847 0.11848 99.9516 2.13506 
3 1 99.947 1.90521 99.9101 -0.864538 
7 3 98.5932 2.8032 99.8669 1.19099 
19 1 97.6385 2.31625 98.5755 -0.704198 
20 1 98.9345 4.42834 99.6953 -0.631375 
30 4 97.2989 3.05389 98.0714 0.363771 
33 4 97.2317 0.422644 98.4269 0.39501 
5 1 2.54025 99.9178 100.001 -0.880799 
10 1 4.81698 99.9703 98.5291 -0.648447 
23 4 5.24482 99.1799 98.2129 0.359242 
4 1 99.7739 99.2794 98.4587 -0.883669 
6 3 98.3855 98.519 98.0893 1.17153 
16 1 98.2975 98.2951 96.4385 -0.63305 
17 1 97.1178 99.4795 98.6224 -0.694814 
18 1 98.3222 97.0251 98.8516 -0.694815 
31 4 97.9221 96.3499 98.3047 0.365008 
32 4 99.0174 98.6943 95.9597 0.3549 
