ITEM: TIMESTEP
0
ITEM: NUMBER OF ATOMS
33
ITEM: BOX BOUNDS pp pp pp
0.0000000000000000e+00 1.0000000000000000e+02
0.0000000000000000e+00 1.0000000000000000e+02
0.0000000000000000e+00 1.0000000000000000e+02
ITEM: ATOMS id type x y z q 
12 1 4.46204 1.13691 0.87035 -0.638097 
22 4 5.35188 1.50634 0.857102 0.356232 
14 1 97.2733 0.054841 1.54801 -0.716854 
21 1 98.0168 2.7543 1.31066 -0.670047 
28 4 99.4438 4.92854 0.498075 0.360997 
29 4 97.718 1.86121 1.58226 0.404737 
9 3 4.2194 99.748 0.013887 1.22079 
11 1 4.89443 98.3976 0.698199 -0.656112 
24 4 4.45899 98.0304 1.47553 0.347339 
2 1 99.78 99.0974 1.47871 -0.84044 
8 3 98.2796 98.8429 2.11477 1.21483 
13 1 97.6929 97.3681 1.69628 -0.651256 
15 1 98.4031 98.9783 3.74402 -0.606633 
25 4 97.6087 97.1814 0.743951 0.400297 
26 4 97.6196 98.7699 4.26422 0.362118 
27 4 96.9392 99.9041 0.642702 0.378964 
3 1 0.093121 1.75203 99.8772 -0.837835 
7 3 98.8684 2.83934 99.9152 1.21144 
19 1 97.9477 2.43129 98.5667 -0.704019 
20 1 99.3397 4.40074 99.6982 -0.626131 
30 4 97.336 3.11482 98.2656 0.355595 
33 4 97.3873 0.743532 98.5079 0.393515 
1 2 0.658141 99.8825 99.9304 2.05203 
5 1 2.59396 99.5829 99.9215 -0.847738 
10 1 4.95679 99.9035 98.545 -0.635583 
23 4 5.29891 99.0895 98.1584 0.357052 
4 1 99.7387 99.0225 98.4044 -0.860776 
6 3 98.1781 98.6604 98.0461 1.18595 
16 1 98.0111 98.4313 96.4218 -0.634842 
17 1 97.1774 99.8011 98.6965 -0.697153 
18 1 97.6714 97.2761 98.8171 -0.684008 
31 4 97.7165 96.4609 98.3047 0.357179 
32 4 98.7404 98.7316 95.8681 0.348463 
ITEM: TIMESTEP
161
ITEM: NUMBER OF ATOMS
33
ITEM: BOX BOUNDS pp pp pp
0.0000000000000000e+00 1.0000000000000000e+02
0.0000000000000000e+00 1.0000000000000000e+02
0.0000000000000000e+00 1.0000000000000000e+02
ITEM: ATOMS id type x y z q 
12 1 4.59134 0.911981 1.02058 -0.649627 
22 4 5.09568 1.58212 0.568548 0.358243 
14 1 97.1136 0.0167885 1.46628 -0.694639 
21 1 98.0505 2.73069 1.31434 -0.648045 
28 4 99.5095 4.89376 0.556404 0.365177 
29 4 97.6781 1.85702 1.48965 0.408494 
9 3 4.13019 99.6481 0.0323465 1.20585 
11 1 4.77449 98.2311 0.635272 -0.642062 
24 4 4.78746 98.1911 1.58656 0.358325 
2 1 99.6607 99.2465 1.4361 -0.870477 
8 3 98.2225 98.9503 2.12771 1.21034 
13 1 97.7357 97.4069 1.73145 -0.653278 
15 1 98.2773 99.0975 3.78985 -0.607536 
25 4 97.8037 97.2068 0.789843 0.401023 
26 4 97.8056 98.4095 4.24976 0.367443 
27 4 96.8482 99.7861 0.561303 0.387304 
3 1 0.146781 1.80851 99.9253 -0.863758 
7 3 98.906 2.85739 99.89 1.19156 
19 1 97.897 2.48875 98.6004 -0.704022 
20 1 99.4263 4.43551 99.7254 -0.631243 
30 4 97.6321 3.26334 98.1071 0.363291 
33 4 97.2769 0.654159 98.4582 0.395251 
1 2 0.646879 99.9557 99.9507 2.13438 
5 1 2.51127 99.5627 99.972 -0.879082 
10 1 4.7677 99.9139 98.5129 -0.648731 
23 4 5.24887 99.1662 98.1704 0.360707 
4 1 99.6703 99.227 98.4638 -0.883317 
6 3 98.2007 98.6322 98.1046 1.17135 
16 1 98.0745 98.4259 96.4538 -0.63316 
17 1 97.0574 99.7297 98.6541 -0.694258 
18 1 97.9731 97.1512 98.8609 -0.695437 
31 4 97.515 96.5214 98.3057 0.364913 
32 4 98.8399 98.7243 95.9722 0.355015 
