ITEM: TIMESTEP
0
ITEM: NUMBER OF ATOMS
33
ITEM: BOX BOUNDS pp pp pp
0.0000000000000000e+00 1.0000000000000000e+02
0.0000000000000000e+00 1.0000000000000000e+02
0.0000000000000000e+00 1.0000000000000000e+02
ITEM: ATOMS id type x y z q 
12 1 4.32052 1.06196 0.865787 -0.64345 
22 4 5.18338 1.49083 0.869534 0.357019 
14 1 97.3024 0.155026 1.56759 -0.716963 
21 1 98.1863 2.81271 1.33744 -0.669708 
27 4 96.9512 0.027977 0.665133 0.378813 
28 4 99.7291 4.90628 0.519869 0.361133 
29 4 97.8439 1.93512 1.60821 0.404838 
9 3 4.18382 99.6624 0.001832 1.21653 
11 1 4.92841 98.3545 0.694968 -0.653616 
24 4 4.48914 97.9434 1.44778 0.348334 
2 1 99.7517 99.0604 1.46589 -0.839453 
8 3 98.2465 98.8865 2.11752 1.21508 
13 1 97.5742 97.4486 1.69937 -0.651135 
15 1 98.3949 99.0071 3.74592 -0.60644 
25 4 97.4702 97.2717 0.747148 0.400266 
26 4 97.6065 98.8398 4.27363 0.361958 
3 1 0.187241 1.70275 99.8777 -0.838634 
7 3 99.0267 2.85748 99.9334 1.21234 
19 1 98.0709 2.5091 98.5926 -0.70386 
20 1 99.5828 4.39098 99.7184 -0.626212 
30 4 97.4948 3.22702 98.3016 0.355535 
33 4 97.4186 0.853651 98.529 0.393528 
1 2 0.654542 99.8071 99.9127 2.05169 
5 1 2.57296 99.3975 99.8803 -0.845836 
10 1 4.9382 99.875 98.5489 -0.635621 
23 4 5.329 99.0853 98.1581 0.357926 
4 1 99.6733 99.0092 98.3916 -0.859796 
6 3 98.0916 98.7335 98.0492 1.18612 
16 1 97.8953 98.5219 96.4257 -0.634929 
17 1 97.1603 99.9229 98.7151 -0.697157 
18 1 97.5191 97.3747 98.8195 -0.683917 
31 4 97.5183 96.5602 98.304 0.357039 
32 4 98.6347 98.7837 95.8659 0.348579 
ITEM: TIMESTEP
123
ITEM: NUMBER OF ATOMS
33
ITEM: BOX BOUNDS pp pp pp
0.0000000000000000e+00 1.0000000000000000e+02
0.0000000000000000e+00 1.0000000000000000e+02
0.0000000000000000e+00 1.0000000000000000e+02
ITEM: ATOMS id type x y z q 
12 1 4.45395 0.896817 1.00298 -0.647355 
22 4 5.01566 1.54608 0.589712 0.358725 
14 1 97.1456 0.117169 1.49369 -0.695754 
21 1 98.2354 2.77481 1.3475 -0.64775 
27 4 96.8554 -0.0945295 0.591582 0.387681 
28 4 99.8217 4.85511 0.577823 0.36553 
29 4 97.8187 1.92076 1.52095 0.408125 
9 3 4.10429 99.5946 0.0179116 1.20104 
11 1 4.8357 98.2262 0.632162 -0.640807 
24 4 4.60017 98.0363 1.53474 0.357578 
2 1 99.6474 99.2166 1.42078 -0.870047 
8 3 98.2063 98.9902 2.13235 1.21036 
13 1 97.6318 97.479 1.73024 -0.652396 
15 1 98.2909 99.1262 3.79389 -0.607788 
25 4 97.6786 97.2825 0.786315 0.400673 
26 4 97.7218 98.5198 4.2582 0.36727 
3 1 0.24922 1.75629 99.9074 -0.863334 
7 3 99.0669 2.87055 99.9069 1.19294 
19 1 98.0121 2.56818 98.6377 -0.703416 
20 1 99.673 4.41777 99.7448 -0.631228 
30 4 97.7798 3.36204 98.1588 0.363268 
33 4 97.3045 0.762455 98.4814 0.395373 
1 2 0.652209 99.8798 99.9259 2.13257 
5 1 2.4959 99.3938 99.945 -0.879995 
10 1 4.73601 99.8974 98.5033 -0.648083 
23 4 5.28742 99.1914 98.1785 0.361578 
4 1 99.6211 99.2095 98.4483 -0.883002 
6 3 98.1168 98.6957 98.1086 1.17106 
16 1 97.9542 98.5117 96.4582 -0.632847 
17 1 97.0429 99.8501 98.682 -0.694821 
18 1 97.8268 97.2214 98.8574 -0.695534 
31 4 97.3239 96.6201 98.3094 0.365071 
32 4 98.7247 98.7802 95.9671 0.355316 
