ITEM: TIMESTEP
0
ITEM: NUMBER OF ATOMS
33
ITEM: BOX BOUNDS pp pp pp
0.0000000000000000e+00 1.0000000000000000e+02
0.0000000000000000e+00 1.0000000000000000e+02
0.0000000000000000e+00 1.0000000000000000e+02
ITEM: ATOMS id type x y z q 
12 1 4.51676 1.16809 0.871322 -0.636089 
22 4 5.4163 1.51287 0.850411 0.355878 
14 1 97.2653 0.011041 1.53887 -0.716865 
21 1 97.9451 2.72821 1.29997 -0.670148 
28 4 99.3236 4.93289 0.489422 0.360908 
29 4 97.6656 1.82916 1.57245 0.404579 
9 3 4.23021 99.7855 0.01844 1.22209 
11 1 4.87559 98.4188 0.699224 -0.657178 
24 4 4.44788 98.0735 1.49078 0.34698 
2 1 99.7935 99.111 1.48455 -0.840621 
8 3 98.296 98.8235 2.11338 1.2146 
13 1 97.7455 97.3349 1.69487 -0.651174 
15 1 98.4079 98.9649 3.74295 -0.606674 
25 4 97.669 97.145 0.742534 0.400279 
26 4 97.6266 98.7401 4.25956 0.362186 
27 4 96.9396 99.8515 0.632 0.378976 
3 1 0.050313 1.77041 99.8777 -0.837689 
7 3 98.8009 2.8295 99.9082 1.21117 
19 1 97.8959 2.39778 98.5564 -0.703951 
20 1 99.2376 4.4008 99.6902 -0.626098 
30 4 97.2694 3.0661 98.2517 0.355636 
33 4 97.3771 0.696654 98.4975 0.393533 
1 2 0.658871 99.9144 99.9383 2.05203 
5 1 2.60054 99.663 99.9388 -0.847942 
10 1 4.95876 99.9176 98.5428 -0.635576 
23 4 5.27975 99.0944 98.1577 0.356717 
4 1 99.7678 99.0284 98.4104 -0.861121 
6 3 98.2177 98.6308 98.0445 1.18584 
16 1 98.0642 98.3952 96.4198 -0.63481 
17 1 97.1884 99.75 98.6876 -0.697172 
18 1 97.738 97.237 98.8155 -0.683936 
31 4 97.8034 96.4221 98.3049 0.35725 
32 4 98.7885 98.7124 95.8689 0.348399 
ITEM: TIMESTEP
165
ITEM: NUMBER OF ATOMS
33
ITEM: BOX BOUNDS pp pp pp
0.0000000000000000e+00 1.0000000000000000e+02
0.0000000000000000e+00 1.0000000000000000e+02
0.0000000000000000e+00 1.0000000000000000e+02
ITEM: ATOMS id type x y z q 
12 1 4.64806 0.924735 1.02511 -0.650009 
22 4 5.12687 1.60326 0.5582 0.357982 
14 1 97.1019 -0.026658 1.45572 -0.69418 
21 1 97.9689 2.70962 1.29806 -0.648464 
28 4 99.3712 4.90495 0.547722 0.365067 
29 4 97.6187 1.82775 1.47734 0.408842 
9 3 4.13936 99.6757 0.0418029 1.20757 
11 1 4.74671 98.2428 0.644611 -0.642932 
24 4 4.86167 98.2432 1.58995 0.358808 
2 1 99.6647 99.2591 1.44081 -0.870345 
8 3 98.2299 98.9331 2.12573 1.21104 
13 1 97.7792 97.379 1.72991 -0.653714 
15 1 98.275 99.0838 3.78765 -0.607817 
25 4 97.8541 97.1793 0.788708 0.401061 
26 4 97.8505 98.3658 4.24759 0.367407 
27 4 96.848 99.7355 0.549296 0.387243 
3 1 0.0995623 1.82829 99.9335 -0.863592 
7 3 98.8361 2.84916 99.8824 1.19182 
19 1 97.8488 2.45411 98.5842 -0.70414 
20 1 99.3216 4.43822 99.7187 -0.631523 
30 4 97.5696 3.2218 98.088 0.363049 
33 4 97.268 0.606278 98.4436 0.395346 
1 2 0.645381 99.9879 99.9611 2.13426 
5 1 2.51845 99.6374 99.9884 -0.878699 
10 1 4.77513 99.9177 98.5176 -0.649112 
23 4 5.22772 99.1535 98.1727 0.360032 
4 1 99.6948 99.2346 98.4692 -0.883001 
6 3 98.2412 98.6057 98.1036 1.17152 
16 1 98.1298 98.3934 96.4528 -0.633302 
17 1 97.0698 99.6779 98.6434 -0.694565 
18 1 98.0426 97.1216 98.8616 -0.695374 
31 4 97.5967 96.4823 98.3073 0.364746 
32 4 98.8918 98.7067 95.9753 0.354985 
