ITEM: TIMESTEP
0
ITEM: NUMBER OF ATOMS
33
ITEM: BOX BOUNDS pp pp pp
0.0000000000000000e+00 1.0000000000000000e+02
0.0000000000000000e+00 1.0000000000000000e+02
0.0000000000000000e+00 1.0000000000000000e+02
ITEM: ATOMS id type x y z q 
12 1 4.08995 0.950078 0.855216 -0.65205 
22 4 4.90121 1.46945 0.875243 0.358756 
28 4 0.119136 4.84902 0.5579 0.361136 
14 1 97.3578 0.286073 1.59587 -0.716974 
21 1 98.4305 2.87473 1.38039 -0.669452 
27 4 96.9881 0.195721 0.696313 0.378735 
29 4 98.0278 2.02273 1.64983 0.405085 
11 1 4.94738 98.3073 0.693939 -0.649724 
24 4 4.50578 97.827 1.40316 0.350114 
2 1 99.715 99.0105 1.44436 -0.837907 
8 3 98.2119 98.945 2.12001 1.21564 
13 1 97.4259 97.5658 1.70232 -0.650956 
15 1 98.3947 99.0394 3.74669 -0.606167 
25 4 97.294 97.4063 0.750507 0.400314 
26 4 97.605 98.9228 4.28587 0.361929 
3 1 0.315292 1.62909 99.8751 -0.83921 
7 3 99.2488 2.86911 99.9627 1.21332 
17 1 97.1569 0.093403 98.745 -0.697655 
19 1 98.2473 2.60967 98.6352 -0.703487 
20 1 99.9185 4.35745 99.7533 -0.625983 
30 4 97.7164 3.36983 98.3666 0.355613 
33 4 97.481 1.00422 98.5628 0.393552 
1 2 0.647164 99.7058 99.885 2.05024 
5 1 2.53122 99.1412 99.8186 -0.840502 
9 3 4.1099 99.5469 99.984 1.20728 
10 1 4.88432 99.8455 98.5571 -0.6359 
23 4 5.34611 99.0968 98.1629 0.359051 
4 1 99.5885 98.9951 98.3726 -0.858231 
6 3 97.9852 98.8435 98.0539 1.18621 
16 1 97.7484 98.664 96.432 -0.635009 
18 1 97.3227 97.5249 98.822 -0.683625 
31 4 97.2568 96.7165 98.3012 0.357013 
32 4 98.4979 98.872 95.8631 0.348837 
ITEM: TIMESTEP
139
ITEM: NUMBER OF ATOMS
33
ITEM: BOX BOUNDS pp pp pp
0.0000000000000000e+00 1.0000000000000000e+02
0.0000000000000000e+00 1.0000000000000000e+02
0.0000000000000000e+00 1.0000000000000000e+02
ITEM: ATOMS id type x y z q 
12 1 4.23652 0.852231 0.97871 -0.647518 
22 4 4.84084 1.49583 0.621276 0.359682 
28 4 0.196521 4.7947 0.613231 0.365941 
14 1 97.1845 0.266809 1.52447 -0.694105 
21 1 98.4696 2.83468 1.38343 -0.6478 
27 4 96.8758 0.0879621 0.621644 0.387489 
29 4 97.9878 2.01584 1.55611 0.408864 
11 1 4.90449 98.2246 0.622577 -0.639135 
24 4 4.5157 97.8365 1.3999 0.357796 
2 1 99.6109 99.1793 1.42617 -0.870538 
8 3 98.1611 99.0566 2.14558 1.21046 
13 1 97.4744 97.5947 1.73711 -0.653545 
15 1 98.2675 99.1653 3.80805 -0.607123 
25 4 97.4924 97.4058 0.790972 0.400799 
26 4 97.7211 98.535 4.26793 0.367731 
3 1 0.378436 1.67585 99.9073 -0.862585 
7 3 99.2876 2.87953 99.9329 1.19456 
17 1 97.0446 0.0319848 98.7107 -0.695074 
19 1 98.1987 2.67451 98.6726 -0.702948 
20 1 100.008 4.37739 99.7779 -0.63132 
30 4 98.0367 3.48451 98.1914 0.363729 
33 4 97.373 0.923698 98.5158 0.39575 
1 2 0.651698 99.776 99.9281 2.13022 
5 1 2.45582 99.1504 99.936 -0.877775 
9 3 4.03804 99.5104 100.005 1.19017 
10 1 4.63108 99.8697 98.4867 -0.647636 
23 4 5.25463 99.2253 98.1648 0.361629 
4 1 99.565 99.1897 98.4535 -0.881727 
6 3 98.0216 98.8032 98.1196 1.17137 
16 1 97.8334 98.6455 96.4696 -0.633091 
18 1 97.6149 97.3523 98.8589 -0.695283 
31 4 97.06 96.8014 98.3081 0.365237 
32 4 98.6236 98.8393 95.9748 0.355778 
