ITEM: TIMESTEP
0
ITEM: NUMBER OF ATOMS
33
ITEM: BOX BOUNDS pp pp pp
0.0000000000000000e+00 1.0000000000000000e+02
0.0000000000000000e+00 1.0000000000000000e+02
0.0000000000000000e+00 1.0000000000000000e+02
ITEM: ATOMS id type x y z q 
12 1 4.46204 1.13691 0.87035 -0.638097 
22 4 5.35188 1.50634 0.857102 0.356232 
14 1 97.2733 0.054841 1.54801 -0.716854 
21 1 98.0168 2.7543 1.31066 -0.670047 
28 4 99.4438 4.92854 0.498075 0.360997 
29 4 97.718 1.86121 1.58226 0.404737 
9 3 4.2194 99.748 0.013887 1.22079 
11 1 4.89443 98.3976 0.698199 -0.656112 
24 4 4.45899 98.0304 1.47553 0.347339 
2 1 99.78 99.0974 1.47871 -0.84044 
8 3 98.2796 98.8429 2.11477 1.21483 
13 1 97.6929 97.3681 1.69628 -0.651256 
15 1 98.4031 98.9783 3.74402 -0.606633 
25 4 97.6087 97.1814 0.743951 0.400297 
26 4 97.6196 98.7699 4.26422 0.362118 
27 4 96.9392 99.9041 0.642702 0.378964 
3 1 0.093121 1.75203 99.8772 -0.837835 
7 3 98.8684 2.83934 99.9152 1.21144 
19 1 97.9477 2.43129 98.5667 -0.704019 
20 1 99.3397 4.40074 99.6982 -0.626131 
30 4 97.336 3.11482 98.2656 0.355595 
33 4 97.3873 0.743532 98.5079 0.393515 
1 2 0.658141 99.8825 99.9304 2.05203 
5 1 2.59396 99.5829 99.9215 -0.847738 
10 1 4.95679 99.9035 98.545 -0.635583 
23 4 5.29891 99.0895 98.1584 0.357052 
4 1 99.7387 99.0225 98.4044 -0.860776 
6 3 98.1781 98.6604 98.0461 1.18595 
16 1 98.0111 98.4313 96.4218 -0.634842 
17 1 97.1774 99.8011 98.6965 -0.697153 
18 1 97.6714 97.2761 98.8171 -0.684008 
31 4 97.7165 96.4609 98.3047 0.357179 
32 4 98.7404 98.7316 95.8681 0.348463 
ITEM: TIMESTEP
214
ITEM: NUMBER OF ATOMS
33
ITEM: BOX BOUNDS pp pp pp
0.0000000000000000e+00 1.0000000000000000e+02
0.0000000000000000e+00 1.0000000000000000e+02
0.0000000000000000e+00 1.0000000000000000e+02
ITEM: ATOMS id type x y z q 
12 1 4.59508 0.909671 1.01881 -0.651037 
22 4 5.06568 1.59644 0.555582 0.358158 
14 1 97.1074 0.0222073 1.46362 -0.693906 
21 1 98.0355 2.73864 1.30098 -0.648266 
28 4 99.4938 4.89846 0.557785 0.36512 
29 4 97.6676 1.86428 1.48184 0.408963 
9 3 4.12695 99.6455 0.034744 1.2064 
11 1 4.78602 98.2333 0.631736 -0.641921 
24 4 4.89998 98.234 1.57716 0.358708 
2 1 99.6485 99.2358 1.45175 -0.870503 
8 3 98.2037 98.948 2.13276 1.21079 
13 1 97.7125 97.4077 1.73081 -0.654101 
15 1 98.251 99.0891 3.79557 -0.60752 
25 4 97.7799 97.2103 0.788628 0.401055 
26 4 97.8405 98.3606 4.25191 0.367504 
27 4 96.8435 99.7918 0.558154 0.387246 
3 1 0.146945 1.79902 99.947 -0.863618 
7 3 98.9136 2.85577 99.89 1.1919 
19 1 97.9233 2.49044 98.5854 -0.704105 
20 1 99.4453 4.43035 99.7295 -0.631666 
30 4 97.6777 3.26486 98.082 0.363095 
33 4 97.283 0.661806 98.452 0.395549 
1 2 0.642238 99.9444 99.971 2.13417 
5 1 2.508 99.5555 99.9879 -0.87785 
10 1 4.74705 99.9137 98.5085 -0.649295 
23 4 5.21097 99.1609 98.1536 0.360313 
4 1 99.6704 99.2167 98.4805 -0.883238 
6 3 98.1989 98.6344 98.1091 1.17138 
16 1 98.0851 98.4328 96.457 -0.633277 
17 1 97.0595 99.7392 98.6517 -0.694467 
18 1 97.9536 97.1536 98.8604 -0.695268 
31 4 97.4898 96.5305 98.3023 0.364735 
32 4 98.8622 98.7145 95.984 0.354948 
