ITEM: TIMESTEP
0
ITEM: NUMBER OF ATOMS
33
ITEM: BOX BOUNDS pp pp pp
0.0000000000000000e+00 1.0000000000000000e+02
0.0000000000000000e+00 1.0000000000000000e+02
0.0000000000000000e+00 1.0000000000000000e+02
ITEM: ATOMS id type x y z q 
12 1 4.58618 1.20935 0.873008 -0.63353 
22 4 5.49712 1.52179 0.840819 0.355495 
21 1 97.8462 2.68771 1.28688 -0.670187 
28 4 99.1573 4.93341 0.480826 0.360768 
29 4 97.5952 1.78063 1.56017 0.404518 
9 3 4.2413 99.8382 0.023978 1.22341 
11 1 4.84635 98.4499 0.69875 -0.658597 
24 4 4.42777 98.1293 1.50544 0.346565 
2 1 99.8135 99.1288 1.49241 -0.840796 
8 3 98.321 98.7953 2.11045 1.21422 
13 1 97.8211 97.2892 1.69125 -0.651118 
14 1 97.2578 99.9485 1.52522 -0.716956 
15 1 98.4159 98.9435 3.74051 -0.606689 
25 4 97.7559 97.0955 0.738839 0.400239 
26 4 97.638 98.695 4.25155 0.362271 
27 4 96.9434 99.777 0.616521 0.379085 
3 1 99.9904 1.79374 99.8814 -0.837563 
7 3 98.7081 2.81286 99.9007 1.211 
19 1 97.8268 2.34977 98.5436 -0.703905 
20 1 99.0965 4.39679 99.6823 -0.626174 
30 4 97.1815 2.99714 98.233 0.355749 
33 4 97.3637 0.632704 98.4836 0.393684 
1 2 0.659928 99.9586 99.9496 2.05196 
5 1 2.6078 99.7721 99.9614 -0.848019 
10 1 4.95671 99.9414 98.5397 -0.635665 
23 4 5.25096 99.1075 98.1561 0.356226 
4 1 99.8072 99.0413 98.4185 -0.861712 
6 3 98.2735 98.5938 98.0416 1.18584 
16 1 98.1399 98.35 96.4164 -0.634784 
17 1 97.2041 99.6809 98.6745 -0.696983 
18 1 97.8329 97.1869 98.8121 -0.683973 
31 4 97.9259 96.3736 98.3032 0.357318 
32 4 98.8574 98.6897 95.87 0.348315 
ITEM: TIMESTEP
169
ITEM: NUMBER OF ATOMS
33
ITEM: BOX BOUNDS pp pp pp
0.0000000000000000e+00 1.0000000000000000e+02
0.0000000000000000e+00 1.0000000000000000e+02
0.0000000000000000e+00 1.0000000000000000e+02
ITEM: ATOMS id type x y z q 
12 1 4.70925 0.955352 1.0284 -0.648923 
22 4 5.18282 1.63263 0.554471 0.35806 
21 1 97.8791 2.66563 1.28826 -0.648484 
28 4 99.2148 4.90701 0.536232 0.364905 
29 4 97.5566 1.77262 1.46469 0.408505 
9 3 4.14817 99.727 0.0477231 1.20909 
11 1 4.69835 98.2721 0.65339 -0.644179 
24 4 4.83854 98.2798 1.59538 0.359032 
2 1 99.6849 99.2772 1.44121 -0.870313 
8 3 98.2594 98.9031 2.12093 1.21069 
13 1 97.8638 97.3336 1.72666 -0.653299 
14 1 97.099 99.9027 1.44394 -0.694827 
15 1 98.2896 99.0604 3.78282 -0.607748 
25 4 97.9527 97.1338 0.786689 0.40121 
26 4 97.8557 98.3474 4.24182 0.367322 
27 4 96.8555 99.6533 0.537879 0.387407 
3 1 100.04 1.85744 99.9273 -0.863763 
7 3 98.7422 2.8347 99.8734 1.19139 
19 1 97.7703 2.40466 98.5748 -0.704145 
20 1 99.1758 4.43879 99.7075 -0.631338 
30 4 97.4648 3.16179 98.0779 0.36308 
33 4 97.2541 0.537493 98.4338 0.395183 
1 2 0.644428 100.036 99.9629 2.13513 
5 1 2.52727 99.7478 99.9968 -0.879568 
10 1 4.79216 99.9381 98.5224 -0.648815 
23 4 5.22854 99.1605 98.1866 0.359598 
4 1 99.7253 99.2453 98.4712 -0.883486 
6 3 98.2944 98.5691 98.1006 1.17135 
16 1 98.1974 98.3492 96.4496 -0.633226 
17 1 97.0861 99.603 98.6331 -0.694536 
18 1 98.142 97.0796 98.8598 -0.695114 
31 4 97.7265 96.4233 98.3017 0.364974 
32 4 98.9481 98.6918 95.9743 0.354835 
