ITEM: TIMESTEP
0
ITEM: NUMBER OF ATOMS
33
ITEM: BOX BOUNDS pp pp pp
0.0000000000000000e+00 1.0000000000000000e+02
0.0000000000000000e+00 1.0000000000000000e+02
0.0000000000000000e+00 1.0000000000000000e+02
ITEM: ATOMS id type x y z q 
12 1 4.44778 1.12944 0.869849 -0.63864 
22 4 5.33501 1.50516 0.858649 0.356264 
14 1 97.2758 0.065082 1.55086 -0.716797 
21 1 98.0345 2.76086 1.31383 -0.670018 
28 4 99.4727 4.92728 0.500147 0.361014 
29 4 97.7309 1.86932 1.58533 0.404687 
9 3 4.21631 99.739 0.012523 1.22045 
11 1 4.89877 98.393 0.697753 -0.655921 
24 4 4.46373 98.0221 1.47352 0.347454 
2 1 99.7772 99.0938 1.4773 -0.840331 
8 3 98.2762 98.8471 2.11517 1.21485 
13 1 97.6808 97.376 1.69627 -0.651265 
15 1 98.4027 98.9804 3.74439 -0.606594 
25 4 97.5942 97.1905 0.743918 0.400333 
26 4 97.6186 98.7758 4.26535 0.362096 
27 4 96.9397 99.9169 0.645885 0.378869 
3 1 0.103023 1.74748 99.877 -0.837898 
7 3 98.8845 2.84172 99.9172 1.21148 
19 1 97.9595 2.43957 98.5698 -0.703999 
20 1 99.3644 4.40049 99.7001 -0.626127 
30 4 97.3515 3.12676 98.2699 0.355569 
33 4 97.3897 0.754613 98.5101 0.393475 
1 2 0.65779 99.8749 99.9284 2.05203 
5 1 2.59206 99.5637 99.9172 -0.84751 
10 1 4.95566 99.9003 98.5452 -0.635606 
23 4 5.3042 99.0889 98.1589 0.357173 
4 1 99.7317 99.0211 98.4029 -0.860652 
6 3 98.1688 98.6676 98.0464 1.18596 
16 1 97.9986 98.4403 96.4222 -0.634864 
17 1 97.1749 99.8132 98.6986 -0.697112 
18 1 97.6555 97.2856 98.8172 -0.68403 
31 4 97.6955 96.4705 98.3044 0.357189 
32 4 98.7289 98.7369 95.8678 0.348476 
ITEM: TIMESTEP
199
ITEM: NUMBER OF ATOMS
33
ITEM: BOX BOUNDS pp pp pp
0.0000000000000000e+00 1.0000000000000000e+02
0.0000000000000000e+00 1.0000000000000000e+02
0.0000000000000000e+00 1.0000000000000000e+02
ITEM: ATOMS id type x y z q 
12 1 4.58272 0.904747 1.01818 -0.651058 
22 4 5.06416 1.58752 0.560252 0.358085 
14 1 97.1092 0.0324093 1.46548 -0.69393 
21 1 98.055 2.74325 1.30697 -0.648145 
28 4 99.5247 4.89721 0.560482 0.365129 
29 4 97.6824 1.87043 1.48582 0.408864 
9 3 4.12478 99.6382 0.0323563 1.20589 
11 1 4.79018 98.2283 0.627761 -0.641881 
24 4 4.8746 98.2149 1.57607 0.358553 
2 1 99.6473 99.2362 1.44748 -0.870725 
8 3 98.2032 98.954 2.132 1.21071 
13 1 97.7045 97.416 1.7304 -0.653998 
15 1 98.2552 99.0947 3.79469 -0.607616 
25 4 97.7753 97.2169 0.788812 0.401062 
26 4 97.8288 98.3761 4.25208 0.367483 
27 4 96.8423 99.8024 0.560726 0.387403 
3 1 0.156944 1.7975 99.9434 -0.86361 
7 3 98.9278 2.85919 99.8926 1.19197 
19 1 97.9299 2.49881 98.5924 -0.703998 
20 1 99.4661 4.43149 99.7315 -0.631655 
30 4 97.6847 3.27504 98.0916 0.363052 
33 4 97.2835 0.671437 98.4555 0.395473 
1 2 0.643168 99.9406 99.9664 2.13416 
5 1 2.50624 99.5392 99.9832 -0.877952 
10 1 4.74594 99.9091 98.5071 -0.649067 
23 4 5.21861 99.1599 98.1558 0.360575 
4 1 99.664 99.2207 98.4767 -0.883143 
6 3 98.1906 98.6407 98.1096 1.17146 
16 1 98.0733 98.4379 96.458 -0.633248 
17 1 97.0558 99.7494 98.6539 -0.694349 
18 1 97.9441 97.16 98.8606 -0.695414 
31 4 97.478 96.5381 98.3029 0.364874 
32 4 98.8479 98.7231 95.9831 0.355047 
