ITEM: TIMESTEP
0
ITEM: NUMBER OF ATOMS
33
ITEM: BOX BOUNDS pp pp pp
0.0000000000000000e+00 1.0000000000000000e+02
0.0000000000000000e+00 1.0000000000000000e+02
0.0000000000000000e+00 1.0000000000000000e+02
ITEM: ATOMS id type x y z q 
12 1 4.68027 1.26568 0.875263 -0.629805 
22 4 5.60541 1.53036 0.824725 0.355043 
21 1 97.7046 2.61898 1.26905 -0.670098 
28 4 98.9097 4.92447 0.470215 0.360645 
29 4 97.4969 1.70105 1.54225 0.404495 
9 3 4.24876 99.9163 0.031761 1.2243 
11 1 4.79139 98.4975 0.697121 -0.660751 
24 4 4.39039 98.2127 1.5259 0.346057 
2 1 99.8437 99.1551 1.50349 -0.840948 
8 3 98.3614 98.753 2.10529 1.21358 
13 1 97.9374 97.2242 1.68423 -0.651007 
14 1 97.2522 99.854 1.50519 -0.717277 
15 1 98.431 98.9086 3.73591 -0.606674 
25 4 97.8902 97.0259 0.731716 0.400206 
26 4 97.6596 98.6256 4.23885 0.362444 
27 4 96.9529 99.6653 0.5948 0.379176 
1 2 0.659937 0.025582 99.9665 2.05144 
3 1 99.9042 1.82722 99.8887 -0.837082 
7 3 98.5738 2.78269 99.8914 1.21047 
19 1 97.7301 2.27458 98.5265 -0.703907 
20 1 98.8867 4.38326 99.6728 -0.626229 
30 4 97.0595 2.89076 98.2062 0.35603 
33 4 97.3481 0.537009 98.4637 0.393744 
5 1 2.61343 99.9358 99.9949 -0.847176 
10 1 4.94239 99.9786 98.5348 -0.635721 
23 4 5.19614 99.1305 98.1536 0.355412 
4 1 99.865 99.0663 98.4306 -0.862704 
6 3 98.3596 98.5437 98.0365 1.18592 
16 1 98.2573 98.2901 96.4106 -0.634769 
17 1 97.2315 99.5789 98.6542 -0.696454 
18 1 97.9794 97.1185 98.8054 -0.684016 
31 4 98.1149 96.3099 98.2986 0.357444 
32 4 98.9624 98.6648 95.8712 0.348217 
ITEM: TIMESTEP
142
ITEM: NUMBER OF ATOMS
33
ITEM: BOX BOUNDS pp pp pp
0.0000000000000000e+00 1.0000000000000000e+02
0.0000000000000000e+00 1.0000000000000000e+02
0.0000000000000000e+00 1.0000000000000000e+02
ITEM: ATOMS id type x y z q 
12 1 4.79581 0.984376 1.03271 -0.64739 
22 4 5.24635 1.66938 0.547487 0.358071 
21 1 97.7533 2.58637 1.27984 -0.648442 
28 4 98.9769 4.89928 0.529921 0.364881 
29 4 97.4665 1.67943 1.44629 0.408017 
9 3 4.15223 99.7933 0.056395 1.21029 
11 1 4.6095 98.3076 0.663814 -0.646435 
24 4 4.81146 98.3227 1.59452 0.359678 
2 1 99.7092 99.3238 1.44064 -0.870162 
8 3 98.3051 98.8653 2.11324 1.2109 
13 1 98.0063 97.274 1.7213 -0.652863 
14 1 97.0906 99.7918 1.42737 -0.695058 
15 1 98.3109 99.0313 3.77443 -0.607511 
25 4 98.1143 97.0762 0.783007 0.401217 
26 4 97.8634 98.3249 4.23066 0.367176 
27 4 96.8689 99.5275 0.519538 0.387419 
1 2 0.642575 0.116693 99.9632 2.13533 
3 1 99.953 1.90736 99.9128 -0.863312 
7 3 98.6015 2.80857 99.8631 1.19053 
19 1 97.6544 2.32452 98.5652 -0.704182 
20 1 98.9421 4.43485 99.6989 -0.631263 
30 4 97.3154 3.06354 98.0628 0.363428 
33 4 97.2367 0.432576 98.4214 0.39511 
5 1 2.53552 99.9118 100.01 -0.880058 
10 1 4.80442 99.9602 98.5291 -0.648606 
23 4 5.21934 99.1653 98.2068 0.358769 
4 1 99.7703 99.2761 98.4707 -0.883977 
6 3 98.3807 98.5216 98.0938 1.17153 
16 1 98.3045 98.2945 96.4428 -0.633301 
17 1 97.115 99.4903 98.617 -0.694062 
18 1 98.3078 97.0282 98.8562 -0.695452 
31 4 97.9393 96.346 98.2961 0.365019 
32 4 99.0372 98.6777 95.9706 0.354713 
