ITEM: TIMESTEP
0
ITEM: NUMBER OF ATOMS
33
ITEM: BOX BOUNDS pp pp pp
0.0000000000000000e+00 1.0000000000000000e+02
0.0000000000000000e+00 1.0000000000000000e+02
0.0000000000000000e+00 1.0000000000000000e+02
ITEM: ATOMS id type x y z q 
12 1 4.36269 1.08324 0.867376 -0.64187 
22 4 5.23392 1.49486 0.866651 0.356758 
14 1 97.2927 0.127241 1.56277 -0.716889 
21 1 98.1384 2.79702 1.32981 -0.669812 
28 4 99.6487 4.91432 0.51367 0.361107 
29 4 97.8081 1.91486 1.60072 0.404793 
9 3 4.19539 99.686 0.005339 1.21794 
11 1 4.92032 98.3655 0.695754 -0.654352 
24 4 4.48239 97.9679 1.45653 0.348023 
2 1 99.7591 99.0712 1.46943 -0.839789 
8 3 98.255 98.8742 2.11676 1.21504 
13 1 97.6066 97.4256 1.69793 -0.651201 
15 1 98.3967 98.9985 3.74546 -0.606498 
25 4 97.5083 97.2459 0.745607 0.400315 
26 4 97.6095 98.8197 4.27108 0.361997 
27 4 96.9458 99.9934 0.659672 0.378803 
3 1 0.161474 1.71735 99.8775 -0.838373 
7 3 98.9821 2.85322 99.9282 1.21204 
19 1 98.0359 2.4877 98.5852 -0.703918 
20 1 99.5142 4.39515 99.7126 -0.626187 
30 4 97.45 3.19633 98.291 0.355545 
33 4 97.4087 0.822678 98.5233 0.393473 
1 2 0.655732 99.8284 99.9177 2.05185 
5 1 2.57968 99.4498 99.8921 -0.846501 
10 1 4.94528 99.8821 98.5477 -0.635602 
23 4 5.32204 99.0851 98.158 0.357688 
4 1 99.6912 99.013 98.3951 -0.860111 
6 3 98.1151 98.7125 98.0482 1.18608 
16 1 97.9269 98.4958 96.4245 -0.634898 
17 1 97.1637 99.8883 98.71 -0.697094 
18 1 97.5612 97.346 98.8186 -0.683961 
31 4 97.5739 96.5311 98.304 0.357073 
32 4 98.6636 98.7689 95.8664 0.34854 
ITEM: TIMESTEP
202
ITEM: NUMBER OF ATOMS
33
ITEM: BOX BOUNDS pp pp pp
0.0000000000000000e+00 1.0000000000000000e+02
0.0000000000000000e+00 1.0000000000000000e+02
0.0000000000000000e+00 1.0000000000000000e+02
ITEM: ATOMS id type x y z q 
12 1 4.50303 0.875692 1.01465 -0.651821 
22 4 4.99538 1.56003 0.570713 0.358367 
14 1 97.1248 0.102172 1.4785 -0.69381 
21 1 98.1551 2.78156 1.31804 -0.648182 
28 4 99.6961 4.88214 0.575169 0.36529 
29 4 97.7558 1.9213 1.49999 0.409072 
9 3 4.10549 99.5939 0.0219669 1.20297 
11 1 4.83258 98.2121 0.611208 -0.640398 
24 4 4.86531 98.1713 1.56193 0.358322 
2 1 99.6313 99.2115 1.45087 -0.870471 
8 3 98.1789 98.9807 2.13775 1.21054 
13 1 97.6228 97.4634 1.73262 -0.654184 
15 1 98.2407 99.1107 3.80106 -0.607316 
25 4 97.6752 97.2676 0.789157 0.400981 
26 4 97.8135 98.3908 4.25564 0.367634 
27 4 96.8465 99.8867 0.573619 0.387132 
3 1 0.219521 1.75997 99.9513 -0.863712 
7 3 99.0308 2.86695 99.9033 1.1924 
19 1 98.0205 2.54729 98.602 -0.70395 
20 1 99.6263 4.41875 99.7457 -0.631642 
30 4 97.8045 3.33325 98.1028 0.363127 
33 4 97.308 0.745815 98.4673 0.395668 
1 2 0.642287 99.8877 99.9667 2.13336 
5 1 2.49245 99.4262 99.9728 -0.876557 
10 1 4.713 99.9045 98.4988 -0.649261 
23 4 5.20747 99.1756 98.1354 0.361077 
4 1 99.6346 99.2048 98.4786 -0.882887 
6 3 98.1389 98.6841 98.113 1.1714 
16 1 98.0083 98.4932 96.4609 -0.633225 
17 1 97.0483 99.8324 98.6657 -0.6945 
18 1 97.8374 97.2115 98.8599 -0.695315 
31 4 97.3436 96.6108 98.3029 0.364734 
32 4 98.7959 98.7384 95.985 0.355149 
