ITEM: TIMESTEP
0
ITEM: NUMBER OF ATOMS
33
ITEM: BOX BOUNDS pp pp pp
0.0000000000000000e+00 1.0000000000000000e+02
0.0000000000000000e+00 1.0000000000000000e+02
0.0000000000000000e+00 1.0000000000000000e+02
ITEM: ATOMS id type x y z q 
12 1 4.25458 1.02765 0.863419 -0.645808 
22 4 5.10398 1.48248 0.873407 0.357485 
14 1 97.3186 0.197217 1.57577 -0.717062 
21 1 98.2616 2.83485 1.35026 -0.669609 
27 4 96.9612 0.081497 0.674185 0.378811 
28 4 99.8535 4.8912 0.531486 0.361175 
29 4 97.9005 1.96475 1.62071 0.404902 
11 1 4.93721 98.3372 0.693711 -0.65246 
24 4 4.49559 97.9049 1.43314 0.34882 
2 1 99.7398 99.0433 1.45948 -0.838977 
8 3 98.2341 98.9049 2.11837 1.21519 
13 1 97.5249 97.4846 1.70074 -0.651036 
15 1 98.3933 99.0184 3.74627 -0.606376 
25 4 97.4118 97.3127 0.74865 0.400233 
26 4 97.6039 98.868 4.27755 0.361927 
3 1 0.227522 1.67999 99.8777 -0.838922 
7 3 99.0962 2.86292 99.9423 1.21272 
19 1 98.1259 2.54214 98.6052 -0.703743 
20 1 99.6892 4.38282 99.7291 -0.626167 
30 4 97.5643 3.27394 98.3206 0.355538 
33 4 97.4363 0.901894 98.5388 0.393554 
1 2 0.652079 99.7746 99.9045 2.05134 
5 1 2.5614 99.3183 99.8618 -0.844582 
9 3 4.16396 99.6258 99.9964 1.21409 
10 1 4.925 99.8641 98.5509 -0.63561 
23 4 5.33607 99.0856 98.1584 0.35824 
4 1 99.646 99.0041 98.3854 -0.85932 
6 3 98.0564 98.7673 98.0504 1.18612 
16 1 97.8471 98.5651 96.4274 -0.634964 
17 1 97.1572 99.977 98.724 -0.697326 
18 1 97.4551 97.4207 98.8203 -0.683849 
31 4 97.4334 96.6076 98.3032 0.357006 
32 4 98.5903 98.8095 95.8647 0.348656 
ITEM: TIMESTEP
201
ITEM: NUMBER OF ATOMS
33
ITEM: BOX BOUNDS pp pp pp
0.0000000000000000e+00 1.0000000000000000e+02
0.0000000000000000e+00 1.0000000000000000e+02
0.0000000000000000e+00 1.0000000000000000e+02
ITEM: ATOMS id type x y z q 
12 1 4.40949 0.851508 1.00046 -0.650386 
22 4 4.92752 1.52929 0.576378 0.358853 
14 1 97.1406 0.178566 1.49401 -0.69307 
21 1 98.2807 2.81341 1.34186 -0.647851 
27 4 96.8514 -0.0240955 0.589536 0.387079 
28 4 99.9038 4.85673 0.595313 0.365533 
29 4 97.8452 1.96989 1.51917 0.409279 
11 1 4.87237 98.2001 0.591105 -0.639212 
24 4 4.73497 98.0436 1.52 0.357851 
2 1 99.6153 99.2033 1.45188 -0.871046 
8 3 98.1588 99.0187 2.14396 1.21027 
13 1 97.551 97.5223 1.73521 -0.65446 
15 1 98.2329 99.1372 3.80759 -0.607058 
25 4 97.5886 97.3304 0.790318 0.40075 
26 4 97.7954 98.4221 4.26005 0.367772 
3 1 0.291981 1.72771 99.9464 -0.863434 
7 3 99.1435 2.87683 99.9182 1.19316 
19 1 98.1088 2.60132 98.6263 -0.703761 
20 1 99.7935 4.40683 99.7628 -0.631658 
30 4 97.9266 3.39482 98.1255 0.363411 
33 4 97.3361 0.825116 98.4843 0.395856 
1 2 0.64451 99.8407 99.9629 2.13201 
5 1 2.47503 99.305 99.9704 -0.876969 
9 3 4.07917 99.5492 100.01 1.19809 
10 1 4.66097 99.8919 98.4831 -0.648863 
23 4 5.21057 99.1998 98.127 0.361836 
4 1 99.6053 99.1992 98.478 -0.882644 
6 3 98.0895 98.7357 98.1176 1.17147 
16 1 97.9444 98.5567 96.4653 -0.633105 
17 1 97.0445 99.9208 98.68 -0.694551 
18 1 97.738 97.2721 98.8605 -0.69542 
31 4 97.2167 96.6933 98.3052 0.364795 
32 4 98.7409 98.767 95.9875 0.355464 
