ITEM: TIMESTEP
0
ITEM: NUMBER OF ATOMS
33
ITEM: BOX BOUNDS pp pp pp
0.0000000000000000e+00 1.0000000000000000e+02
0.0000000000000000e+00 1.0000000000000000e+02
0.0000000000000000e+00 1.0000000000000000e+02
ITEM: ATOMS id type x y z q 
12 1 4.25458 1.02765 0.863419 -0.645808 
22 4 5.10398 1.48248 0.873407 0.357485 
14 1 97.3186 0.197217 1.57577 -0.717062 
21 1 98.2616 2.83485 1.35026 -0.669609 
27 4 96.9612 0.081497 0.674185 0.378811 
28 4 99.8535 4.8912 0.531486 0.361175 
29 4 97.9005 1.96475 1.62071 0.404902 
11 1 4.93721 98.3372 0.693711 -0.65246 
24 4 4.49559 97.9049 1.43314 0.34882 
2 1 99.7398 99.0433 1.45948 -0.838977 
8 3 98.2341 98.9049 2.11837 1.21519 
13 1 97.5249 97.4846 1.70074 -0.651036 
15 1 98.3933 99.0184 3.74627 -0.606376 
25 4 97.4118 97.3127 0.74865 0.400233 
26 4 97.6039 98.868 4.27755 0.361927 
3 1 0.227522 1.67999 99.8777 -0.838922 
7 3 99.0962 2.86292 99.9423 1.21272 
19 1 98.1259 2.54214 98.6052 -0.703743 
20 1 99.6892 4.38282 99.7291 -0.626167 
30 4 97.5643 3.27394 98.3206 0.355538 
33 4 97.4363 0.901894 98.5388 0.393554 
1 2 0.652079 99.7746 99.9045 2.05134 
5 1 2.5614 99.3183 99.8618 -0.844582 
9 3 4.16396 99.6258 99.9964 1.21409 
10 1 4.925 99.8641 98.5509 -0.63561 
23 4 5.33607 99.0856 98.1584 0.35824 
4 1 99.646 99.0041 98.3854 -0.85932 
6 3 98.0564 98.7673 98.0504 1.18612 
16 1 97.8471 98.5651 96.4274 -0.634964 
17 1 97.1572 99.977 98.724 -0.697326 
18 1 97.4551 97.4207 98.8203 -0.683849 
31 4 97.4334 96.6076 98.3032 0.357006 
32 4 98.5903 98.8095 95.8647 0.348656 
ITEM: TIMESTEP
163
ITEM: NUMBER OF ATOMS
33
ITEM: BOX BOUNDS pp pp pp
0.0000000000000000e+00 1.0000000000000000e+02
0.0000000000000000e+00 1.0000000000000000e+02
0.0000000000000000e+00 1.0000000000000000e+02
ITEM: ATOMS id type x y z q 
12 1 4.39767 0.870287 0.997986 -0.648765 
22 4 4.95108 1.52984 0.590118 0.358965 
14 1 97.1535 0.171633 1.49947 -0.694582 
21 1 98.2951 2.80586 1.35024 -0.648021 
27 4 96.8599 -0.0288546 0.595989 0.387343 
28 4 99.9254 4.84651 0.590587 0.365512 
29 4 97.8595 1.96249 1.5277 0.408832 
11 1 4.86733 98.2141 0.611393 -0.639821 
24 4 4.64215 98.0085 1.51316 0.357546 
2 1 99.6278 99.1961 1.43307 -0.870659 
8 3 98.1781 99.0121 2.13916 1.21056 
13 1 97.5629 97.5179 1.73374 -0.653436 
15 1 98.2645 99.1367 3.80145 -0.607609 
25 4 97.6016 97.3237 0.789168 0.400939 
26 4 97.7507 98.4796 4.26182 0.367528 
3 1 0.289434 1.72696 99.9263 -0.863612 
7 3 99.1399 2.8753 99.916 1.19336 
19 1 98.0888 2.60251 98.6365 -0.703444 
20 1 99.7879 4.40578 99.7572 -0.631399 
30 4 97.8874 3.40037 98.15 0.363359 
33 4 97.3315 0.819978 98.4892 0.395541 
1 2 0.649059 99.8416 99.9421 2.1322 
5 1 2.48157 99.3121 99.953 -0.878313 
9 3 4.08437 99.5603 100.011 1.19841 
10 1 4.68852 99.892 98.4915 -0.648503 
23 4 5.24995 99.2022 98.1504 0.361892 
4 1 99.605 99.1974 98.4619 -0.882646 
6 3 98.0869 98.7316 98.1145 1.1716 
16 1 97.9263 98.5529 96.4638 -0.633182 
17 1 97.0443 99.9144 98.6864 -0.69491 
18 1 97.745 97.2665 98.8591 -0.695185 
31 4 97.2232 96.6858 98.3065 0.365052 
32 4 98.7119 98.7829 95.9772 0.355452 
