ITEM: TIMESTEP
0
ITEM: NUMBER OF ATOMS
33
ITEM: BOX BOUNDS pp pp pp
0.0000000000000000e+00 1.0000000000000000e+02
0.0000000000000000e+00 1.0000000000000000e+02
0.0000000000000000e+00 1.0000000000000000e+02
ITEM: ATOMS id type x y z q 
12 1 4.44778 1.12944 0.869849 -0.63864 
22 4 5.33501 1.50516 0.858649 0.356264 
14 1 97.2758 0.065082 1.55086 -0.716797 
21 1 98.0345 2.76086 1.31383 -0.670018 
28 4 99.4727 4.92728 0.500147 0.361014 
29 4 97.7309 1.86932 1.58533 0.404687 
9 3 4.21631 99.739 0.012523 1.22045 
11 1 4.89877 98.393 0.697753 -0.655921 
24 4 4.46373 98.0221 1.47352 0.347454 
2 1 99.7772 99.0938 1.4773 -0.840331 
8 3 98.2762 98.8471 2.11517 1.21485 
13 1 97.6808 97.376 1.69627 -0.651265 
15 1 98.4027 98.9804 3.74439 -0.606594 
25 4 97.5942 97.1905 0.743918 0.400333 
26 4 97.6186 98.7758 4.26535 0.362096 
27 4 96.9397 99.9169 0.645885 0.378869 
3 1 0.103023 1.74748 99.877 -0.837898 
7 3 98.8845 2.84172 99.9172 1.21148 
19 1 97.9595 2.43957 98.5698 -0.703999 
20 1 99.3644 4.40049 99.7001 -0.626127 
30 4 97.3515 3.12676 98.2699 0.355569 
33 4 97.3897 0.754613 98.5101 0.393475 
1 2 0.65779 99.8749 99.9284 2.05203 
5 1 2.59206 99.5637 99.9172 -0.84751 
10 1 4.95566 99.9003 98.5452 -0.635606 
23 4 5.3042 99.0889 98.1589 0.357173 
4 1 99.7317 99.0211 98.4029 -0.860652 
6 3 98.1688 98.6676 98.0464 1.18596 
16 1 97.9986 98.4403 96.4222 -0.634864 
17 1 97.1749 99.8132 98.6986 -0.697112 
18 1 97.6555 97.2856 98.8172 -0.68403 
31 4 97.6955 96.4705 98.3044 0.357189 
32 4 98.7289 98.7369 95.8678 0.348476 
ITEM: TIMESTEP
207
ITEM: NUMBER OF ATOMS
33
ITEM: BOX BOUNDS pp pp pp
0.0000000000000000e+00 1.0000000000000000e+02
0.0000000000000000e+00 1.0000000000000000e+02
0.0000000000000000e+00 1.0000000000000000e+02
ITEM: ATOMS id type x y z q 
12 1 4.58519 0.907676 1.01359 -0.651503 
22 4 5.04783 1.59824 0.548137 0.358179 
14 1 97.1088 0.0343271 1.46419 -0.693852 
21 1 98.0469 2.74759 1.29924 -0.648154 
28 4 99.5199 4.89748 0.561907 0.365148 
29 4 97.6761 1.87472 1.48137 0.409071 
9 3 4.12365 99.6388 0.0324231 1.20602 
11 1 4.80007 98.2337 0.626881 -0.641525 
24 4 4.93252 98.2424 1.56996 0.358698 
2 1 99.6431 99.2275 1.46077 -0.870391 
8 3 98.1935 98.9501 2.1361 1.21057 
13 1 97.692 97.4138 1.73162 -0.654337 
15 1 98.2348 99.0856 3.79966 -0.607257 
25 4 97.7576 97.2174 0.789143 0.400972 
26 4 97.8345 98.3486 4.25145 0.367641 
27 4 96.8434 99.8057 0.558792 0.387148 
3 1 0.157245 1.7894 99.9572 -0.863686 
7 3 98.9335 2.85684 99.8929 1.19188 
19 1 97.9477 2.49947 98.5826 -0.704016 
20 1 99.479 4.42695 99.7346 -0.631822 
30 4 97.7165 3.27531 98.0746 0.363087 
33 4 97.2899 0.677118 98.4526 0.395722 
1 2 0.640932 99.9318 99.9805 2.13391 
5 1 2.50533 99.5352 99.9932 -0.877335 
10 1 4.73305 99.9116 98.5025 -0.64946 
23 4 5.19726 99.1613 98.1433 0.360385 
4 1 99.6653 99.2117 98.4885 -0.883141 
6 3 98.1901 98.6422 98.1122 1.17131 
16 1 98.0783 98.4422 96.4598 -0.633293 
17 1 97.0585 99.7564 98.6523 -0.69441 
18 1 97.93 97.1627 98.8611 -0.695319 
31 4 97.4598 96.545 98.3025 0.364812 
32 4 98.8588 98.7165 95.9882 0.35495 
