ITEM: TIMESTEP
0
ITEM: NUMBER OF ATOMS
15
ITEM: BOX BOUNDS pp pp pp
0.0000000000000000e+00 1.0000000000000000e+02
0.0000000000000000e+00 1.0000000000000000e+02
0.0000000000000000e+00 1.0000000000000000e+02
ITEM: ATOMS id type x y z q 
5 2 0.92912 0.00574 0.20016 2.05602 
12 4 0.91648 1.8096 1.02257 -0.820455 
13 3 1.58086 2.50114 0.92701 0.340515 
8 4 98.9265 0.19403 1.32035 -0.803071 
9 3 98.7926 1.04108 1.76425 0.388921 
10 4 1.18638 98.5349 1.48312 -0.828798 
11 3 0.8088 98.3576 2.3505 0.368148 
2 4 97.2234 1.33183 99.6317 -0.635981 
6 3 96.4217 1.23701 99.1068 0.356161 
14 4 2.53467 99.9696 99.0853 -0.846492 
15 3 3.35202 99.4833 98.9506 0.363504 
1 1 98.093 99.9591 99.8681 1.12502 
3 4 97.0353 98.6986 99.9059 -0.63209 
4 4 99.3746 99.6784 98.9034 -0.770676 
7 3 97.4049 97.8572 99.615 0.339278 
ITEM: TIMESTEP
75
ITEM: NUMBER OF ATOMS
15
ITEM: BOX BOUNDS pp pp pp
0.0000000000000000e+00 1.0000000000000000e+02
0.0000000000000000e+00 1.0000000000000000e+02
0.0000000000000000e+00 1.0000000000000000e+02
ITEM: ATOMS id type x y z q 
5 2 0.816526 0.132058 0.485755 2.14466 
12 4 1.26805 1.97431 0.964394 -0.837538 
13 3 1.83736 2.65436 0.693854 0.385767 
8 4 99.0685 0.272866 1.63686 -0.831898 
9 3 98.5232 0.940726 2.04055 0.370943 
10 4 1.40283 98.6112 1.56687 -0.842219 
11 3 1.11131 98.1017 2.28437 0.381735 
2 4 97.2299 1.31998 99.3844 -0.630641 
6 3 96.3964 1.18193 98.9413 0.351542 
14 4 2.33096 100.012 99.2349 -0.813916 
15 3 2.9481 99.3924 98.9299 0.385161 
1 1 97.9923 99.9217 99.8325 0.952992 
3 4 96.9867 98.6086 99.8359 -0.629012 
4 4 99.4018 99.6277 99.0504 -0.733261 
7 3 97.2663 97.907 99.253 0.345686 
