ITEM: TIMESTEP
0
ITEM: NUMBER OF ATOMS
15
ITEM: BOX BOUNDS pp pp pp
0.0000000000000000e+00 1.0000000000000000e+02
0.0000000000000000e+00 1.0000000000000000e+02
0.0000000000000000e+00 1.0000000000000000e+02
ITEM: ATOMS id type x y z q 
5 2 0.68293 0.02248 0.44455 2.12411 
12 4 0.48605 1.81213 1.27451 -0.822171 
13 3 1.13851 2.52098 1.29898 0.338274 
8 4 98.9265 0.19403 1.32035 -0.904247 
9 3 98.7926 1.04108 1.76425 0.428204 
10 4 0.76245 98.538 1.73508 -0.821454 
11 3 0.25089 98.3378 2.52538 0.378088 
14 4 2.45172 0.04302 99.6121 -0.858651 
2 4 97.2234 1.33183 99.6317 -0.631277 
6 3 96.4217 1.23701 99.1068 0.357105 
15 3 3.2927 99.5788 99.6096 0.36375 
1 1 98.093 99.9591 99.8681 1.10543 
3 4 97.0353 98.6986 99.9059 -0.629539 
4 4 99.3746 99.6784 98.9034 -0.765693 
7 3 97.4049 97.8572 99.615 0.338072 
ITEM: TIMESTEP
273
ITEM: NUMBER OF ATOMS
15
ITEM: BOX BOUNDS pp pp pp
0.0000000000000000e+00 1.0000000000000000e+02
0.0000000000000000e+00 1.0000000000000000e+02
0.0000000000000000e+00 1.0000000000000000e+02
ITEM: ATOMS id type x y z q 
5 2 0.575892 0.101196 0.884298 2.11975 
12 4 0.842392 1.95318 1.46944 -0.825501 
13 3 1.36515 2.69005 1.26189 0.388797 
8 4 98.7064 0.066132 1.81837 -0.831514 
9 3 98.0523 0.674629 2.14557 0.369392 
10 4 1.3794 98.7979 2.10063 -0.827552 
11 3 1.14883 98.2783 2.83309 0.383541 
14 4 1.96164 0.251828 99.5007 -0.816801 
2 4 97.9467 1.26894 99.1574 -0.659992 
6 3 97.1829 1.40398 98.6024 0.354671 
15 3 2.28815 99.7771 98.7745 0.391553 
1 1 98.0209 99.7567 99.8222 0.900718 
3 4 96.649 98.8591 99.5997 -0.619197 
4 4 99.404 98.9765 99.4162 -0.680625 
7 3 96.8136 97.995 99.2295 0.352764 
