ITEM: TIMESTEP
0
ITEM: NUMBER OF ATOMS
15
ITEM: BOX BOUNDS pp pp pp
0.0000000000000000e+00 1.0000000000000000e+02
0.0000000000000000e+00 1.0000000000000000e+02
0.0000000000000000e+00 1.0000000000000000e+02
ITEM: ATOMS id type x y z q 
5 2 0.86735 0.01117 0.2695 2.06966 
12 4 0.80555 1.8117 1.09696 -0.820226 
13 3 1.46876 2.50806 1.03366 0.339982 
8 4 98.9265 0.19403 1.32035 -0.824952 
9 3 98.7926 1.04108 1.76425 0.397012 
10 4 1.0772 98.5371 1.55741 -0.827155 
11 3 0.66248 98.3539 2.40641 0.370705 
2 4 97.2234 1.33183 99.6317 -0.634761 
6 3 96.4217 1.23701 99.1068 0.356451 
14 4 2.52131 99.9902 99.2274 -0.848928 
15 3 3.3472 99.5099 99.1276 0.363591 
1 1 98.093 99.9591 99.8681 1.11985 
3 4 97.0353 98.6986 99.9059 -0.631375 
4 4 99.3746 99.6784 98.9034 -0.768908 
7 3 97.4049 97.8572 99.615 0.339046 
ITEM: TIMESTEP
101
ITEM: NUMBER OF ATOMS
15
ITEM: BOX BOUNDS pp pp pp
0.0000000000000000e+00 1.0000000000000000e+02
0.0000000000000000e+00 1.0000000000000000e+02
0.0000000000000000e+00 1.0000000000000000e+02
ITEM: ATOMS id type x y z q 
5 2 0.770676 0.141544 0.579632 2.13273 
12 4 1.18469 1.9939 1.0548 -0.835833 
13 3 1.74761 2.68156 0.789886 0.386487 
8 4 98.9959 0.258546 1.68191 -0.834813 
9 3 98.4301 0.918784 2.06977 0.372171 
10 4 1.34462 98.6235 1.67253 -0.839437 
11 3 1.0359 98.1023 2.37394 0.382123 
2 4 97.2681 1.32134 99.3674 -0.629601 
6 3 96.4359 1.19394 98.9185 0.351944 
14 4 2.31538 100.036 99.3658 -0.812461 
15 3 2.90427 99.4072 99.0244 0.385946 
1 1 97.9953 99.9102 99.8355 0.938883 
3 4 96.961 98.6183 99.816 -0.62619 
4 4 99.4064 99.5912 99.063 -0.718198 
7 3 97.226 97.9205 99.2214 0.346251 
