ITEM: TIMESTEP
0
ITEM: NUMBER OF ATOMS
15
ITEM: BOX BOUNDS pp pp pp
0.0000000000000000e+00 1.0000000000000000e+02
0.0000000000000000e+00 1.0000000000000000e+02
0.0000000000000000e+00 1.0000000000000000e+02
ITEM: ATOMS id type x y z q 
12 4 1.04692 1.80566 0.92538 -0.821078 
13 3 1.71075 2.49116 0.79052 0.341076 
8 4 98.9265 0.19403 1.32035 -0.780194 
9 3 98.7926 1.04108 1.76425 0.380828 
5 2 1.00003 99.9982 0.1121 2.04252 
10 4 1.31472 98.5308 1.38615 -0.830533 
11 3 0.98348 98.3605 2.27363 0.365169 
2 4 97.2234 1.33183 99.6317 -0.63743 
6 3 96.4217 1.23701 99.1068 0.355775 
14 4 2.54216 99.9438 98.9118 -0.8441 
15 3 3.34696 99.45 98.7351 0.363372 
1 1 98.093 99.9591 99.8681 1.13116 
3 4 97.0353 98.6986 99.9059 -0.632973 
4 4 99.3746 99.6784 98.9034 -0.773081 
7 3 97.4049 97.8572 99.615 0.339488 
ITEM: TIMESTEP
91
ITEM: NUMBER OF ATOMS
15
ITEM: BOX BOUNDS pp pp pp
0.0000000000000000e+00 1.0000000000000000e+02
0.0000000000000000e+00 1.0000000000000000e+02
0.0000000000000000e+00 1.0000000000000000e+02
ITEM: ATOMS id type x y z q 
12 4 1.36553 1.94989 0.865909 -0.838988 
13 3 1.92526 2.62954 0.574921 0.385216 
8 4 99.151 0.275811 1.58303 -0.829688 
9 3 98.6286 0.947422 2.00896 0.369373 
5 2 0.868999 100.12 0.38357 2.15843 
10 4 1.49156 98.61 1.45848 -0.844202 
11 3 1.23271 98.1167 2.19947 0.381242 
2 4 97.211 1.31978 99.3972 -0.632206 
6 3 96.379 1.17592 98.9535 0.350756 
14 4 2.33299 99.9837 99.0768 -0.815553 
15 3 2.94567 99.3622 98.7642 0.384377 
1 1 97.9926 99.9271 99.8266 0.968601 
3 4 97.0038 98.6023 99.8477 -0.632232 
4 4 99.4002 99.6583 99.0399 -0.74971 
7 3 97.2883 97.8984 99.27 0.344587 
