ITEM: TIMESTEP
0
ITEM: NUMBER OF ATOMS
15
ITEM: BOX BOUNDS pp pp pp
0.0000000000000000e+00 1.0000000000000000e+02
0.0000000000000000e+00 1.0000000000000000e+02
0.0000000000000000e+00 1.0000000000000000e+02
ITEM: ATOMS id type x y z q 
12 4 1.14542 1.8015 0.84426 -0.821726 
13 3 1.80728 2.48215 0.67865 0.341453 
8 4 98.9265 0.19403 1.32035 -0.764662 
9 3 98.7926 1.04108 1.76425 0.375597 
5 2 1.0522 99.9916 0.04042 2.03386 
10 4 1.41157 98.5265 1.30529 -0.831725 
11 3 1.11745 98.3614 2.20673 0.362957 
2 4 97.2234 1.33183 99.6317 -0.638535 
6 3 96.4217 1.23701 99.1068 0.355451 
14 4 2.54127 99.9229 98.7755 -0.842586 
15 3 3.3346 99.4232 98.5665 0.363243 
1 1 98.093 99.9591 99.8681 1.13584 
3 4 97.0353 98.6986 99.9059 -0.633668 
4 4 99.3746 99.6784 98.9034 -0.775098 
7 3 97.4049 97.8572 99.615 0.339604 
ITEM: TIMESTEP
63
ITEM: NUMBER OF ATOMS
15
ITEM: BOX BOUNDS pp pp pp
0.0000000000000000e+00 1.0000000000000000e+02
0.0000000000000000e+00 1.0000000000000000e+02
0.0000000000000000e+00 1.0000000000000000e+02
ITEM: ATOMS id type x y z q 
12 4 1.38059 1.81278 0.779726 -0.84942 
13 3 1.88201 2.56785 0.588209 0.377449 
8 4 98.8782 0.243681 1.41134 -0.755117 
9 3 98.4111 0.925345 1.91594 0.358467 
5 2 1.03542 100.03 0.0708196 2.08987 
10 4 1.47108 98.5716 1.28713 -0.857309 
11 3 1.2093 98.2395 2.11276 0.379883 
2 4 97.2789 1.37664 99.4646 -0.636591 
6 3 96.4091 1.21575 99.1113 0.352687 
14 4 2.51054 99.9149 98.791 -0.83807 
15 3 3.25457 99.3904 98.6119 0.375659 
1 1 98.0864 99.9837 99.8972 1.07861 
3 4 97.0541 98.6764 99.955 -0.636102 
4 4 99.4003 99.6712 98.9686 -0.784071 
7 3 97.4204 97.8869 99.5675 0.344061 
