ITEM: TIMESTEP
0
ITEM: NUMBER OF ATOMS
15
ITEM: BOX BOUNDS pp pp pp
0.0000000000000000e+00 1.0000000000000000e+02
0.0000000000000000e+00 1.0000000000000000e+02
0.0000000000000000e+00 1.0000000000000000e+02
ITEM: ATOMS id type x y z q 
12 4 1.36893 1.7876 0.6309 -0.823546 
13 3 2.02046 2.45612 0.39141 0.342138 
8 4 98.9265 0.19403 1.32035 -0.733891 
9 3 98.7926 1.04108 1.76425 0.366055 
10 4 1.63115 98.5125 1.09285 -0.834092 
11 3 1.42933 98.3591 2.02135 0.358091 
2 4 97.2234 1.33183 99.6317 -0.641089 
6 3 96.4217 1.23701 99.1068 0.354602 
5 2 1.16538 99.9733 99.8581 2.01809 
14 4 2.51444 99.8706 98.4469 -0.839982 
15 3 3.27415 99.3565 98.1618 0.362872 
1 1 98.093 99.9591 99.8681 1.14659 
3 4 97.0353 98.6986 99.9059 -0.635335 
4 4 99.3746 99.6784 98.9034 -0.780235 
7 3 97.4049 97.8572 99.615 0.339734 
ITEM: TIMESTEP
32
ITEM: NUMBER OF ATOMS
15
ITEM: BOX BOUNDS pp pp pp
0.0000000000000000e+00 1.0000000000000000e+02
0.0000000000000000e+00 1.0000000000000000e+02
0.0000000000000000e+00 1.0000000000000000e+02
ITEM: ATOMS id type x y z q 
12 4 1.50331 1.75717 0.573276 -0.850427 
13 3 2.02085 2.49921 0.375722 0.376372 
8 4 99.0126 0.231061 1.31654 -0.750442 
9 3 98.6163 0.942242 1.83566 0.357272 
10 4 1.63123 98.5709 1.08613 -0.861377 
11 3 1.46946 98.2928 1.95633 0.379254 
2 4 97.2701 1.38095 99.504 -0.641068 
6 3 96.4114 1.23173 99.1211 0.350877 
5 2 1.09561 99.9881 99.8642 2.11049 
14 4 2.46654 99.8677 98.4732 -0.843245 
15 3 3.19428 99.3432 98.2366 0.373826 
1 1 98.0893 99.9793 99.8776 1.1072 
3 4 97.0715 98.6641 99.9686 -0.641966 
4 4 99.3871 99.6953 98.939 -0.808787 
7 3 97.4361 97.8692 99.5908 0.342017 
