ITEM: TIMESTEP
0
ITEM: NUMBER OF ATOMS
15
ITEM: BOX BOUNDS pp pp pp
0.0000000000000000e+00 1.0000000000000000e+02
0.0000000000000000e+00 1.0000000000000000e+02
0.0000000000000000e+00 1.0000000000000000e+02
ITEM: ATOMS id type x y z q 
5 2 0.77223 0.01782 0.36514 2.09484 
12 4 0.6388 1.8129 1.196 -0.82064 
13 3 1.29768 2.51602 1.1794 0.339111 
8 4 98.9265 0.19403 1.32035 -0.862918 
9 3 98.7926 1.04108 1.76425 0.411658 
10 4 0.91297 98.5385 1.65644 -0.824374 
11 3 0.44596 98.3465 2.4758 0.374573 
14 4 2.49039 0.01885 99.4325 -0.853444 
2 4 97.2234 1.33183 99.6317 -0.632942 
6 3 96.4217 1.23701 99.1068 0.356826 
15 3 3.3258 99.5472 99.384 0.363689 
1 1 98.093 99.9591 99.8681 1.11223 
3 4 97.0353 98.6986 99.9059 -0.630372 
4 4 99.3746 99.6784 98.9034 -0.766834 
7 3 97.4049 97.8572 99.615 0.338599 
ITEM: TIMESTEP
185
ITEM: NUMBER OF ATOMS
15
ITEM: BOX BOUNDS pp pp pp
0.0000000000000000e+00 1.0000000000000000e+02
0.0000000000000000e+00 1.0000000000000000e+02
0.0000000000000000e+00 1.0000000000000000e+02
ITEM: ATOMS id type x y z q 
5 2 0.686343 0.106051 0.764088 2.12159 
12 4 0.974094 1.98 1.25292 -0.831737 
13 3 1.51306 2.69608 1.01504 0.388012 
8 4 98.8496 0.120635 1.76287 -0.834354 
9 3 98.2335 0.746082 2.13035 0.370488 
10 4 1.38315 98.7204 1.95561 -0.831087 
11 3 1.11602 98.2171 2.68713 0.382647 
14 4 2.17213 0.131271 99.4749 -0.813148 
2 4 97.6301 1.33274 99.2399 -0.641055 
6 3 96.8071 1.35157 98.7575 0.353109 
15 3 2.54554 99.5949 98.8174 0.388869 
1 1 98.022 99.8331 99.8214 0.917904 
3 4 96.7801 98.7459 99.6992 -0.621226 
4 4 99.4363 99.2565 99.2228 -0.700329 
7 3 97.0068 97.9626 99.2036 0.350315 
