ITEM: TIMESTEP
0
ITEM: NUMBER OF ATOMS
15
ITEM: BOX BOUNDS pp pp pp
0.0000000000000000e+00 1.0000000000000000e+02
0.0000000000000000e+00 1.0000000000000000e+02
0.0000000000000000e+00 1.0000000000000000e+02
ITEM: ATOMS id type x y z q 
12 4 1.26316 1.79502 0.7374 -0.822644 
13 3 1.92069 2.46949 0.53365 0.341843 
8 4 98.9265 0.19403 1.32035 -0.74776 
9 3 98.7926 1.04108 1.76425 0.370204 
10 4 1.52728 98.52 1.19885 -0.833023 
11 3 1.28026 98.3611 2.11542 0.360364 
2 4 97.2234 1.33183 99.6317 -0.639872 
6 3 96.4217 1.23701 99.1068 0.355025 
5 2 1.1128 99.9826 99.9481 2.02495 
14 4 2.53182 99.8963 98.6061 -0.841079 
15 3 3.30888 99.3892 98.3575 0.363063 
1 1 98.093 99.9591 99.8681 1.14148 
3 4 97.0353 98.6986 99.9059 -0.63453 
4 4 99.3746 99.6784 98.9034 -0.777714 
7 3 97.4049 97.8572 99.615 0.339696 
ITEM: TIMESTEP
35
ITEM: NUMBER OF ATOMS
15
ITEM: BOX BOUNDS pp pp pp
0.0000000000000000e+00 1.0000000000000000e+02
0.0000000000000000e+00 1.0000000000000000e+02
0.0000000000000000e+00 1.0000000000000000e+02
ITEM: ATOMS id type x y z q 
12 4 1.43007 1.77305 0.675114 -0.848666 
13 3 1.94124 2.52417 0.497703 0.376398 
8 4 98.9525 0.253165 1.35554 -0.752229 
9 3 98.5129 0.936746 1.8797 0.358828 
10 4 1.5518 98.5732 1.18168 -0.859589 
11 3 1.33815 98.2785 2.03507 0.379515 
2 4 97.2797 1.382 99.486 -0.639392 
6 3 96.4129 1.23107 99.1229 0.351327 
5 2 1.07037 100.001 99.9474 2.10298 
14 4 2.49649 99.8859 98.6181 -0.844476 
15 3 3.23941 99.3671 98.4184 0.374247 
1 1 98.0905 99.984 99.8908 1.09835 
3 4 97.0713 98.6683 99.9666 -0.640413 
4 4 99.3897 99.6767 98.9524 -0.799911 
7 3 97.4398 97.8762 99.5853 0.343036 
