ITEM: TIMESTEP
0
ITEM: NUMBER OF ATOMS
15
ITEM: BOX BOUNDS pp pp pp
0.0000000000000000e+00 1.0000000000000000e+02
0.0000000000000000e+00 1.0000000000000000e+02
0.0000000000000000e+00 1.0000000000000000e+02
ITEM: ATOMS id type x y z q 
12 4 1.57395 1.76783 0.38914 -0.825394 
13 3 2.2068 2.42348 0.07544 0.342556 
8 4 98.9265 0.19403 1.32035 -0.709813 
9 3 98.7926 1.04108 1.76425 0.359593 
10 4 1.83226 98.4926 0.85246 -0.835941 
11 3 1.72778 98.3501 1.79857 0.353828 
2 4 97.2234 1.33183 99.6317 -0.643507 
6 3 96.4217 1.23701 99.1068 0.353661 
5 2 1.26103 99.951 99.6599 2.00728 
14 4 2.45085 99.8146 98.1147 -0.838459 
15 3 3.16782 99.2857 97.7556 0.362405 
1 1 98.093 99.9591 99.8681 1.15665 
3 4 97.0353 98.6986 99.9059 -0.636984 
4 4 99.3746 99.6784 98.9034 -0.785567 
7 3 97.4049 97.8572 99.615 0.339686 
ITEM: TIMESTEP
92
ITEM: NUMBER OF ATOMS
15
ITEM: BOX BOUNDS pp pp pp
0.0000000000000000e+00 1.0000000000000000e+02
0.0000000000000000e+00 1.0000000000000000e+02
0.0000000000000000e+00 1.0000000000000000e+02
ITEM: ATOMS id type x y z q 
12 4 1.70144 1.79493 0.239396 -0.857084 
13 3 2.11397 2.57064 -0.0581651 0.376923 
8 4 98.8847 0.240651 1.48919 -0.703696 
9 3 98.3389 0.782577 2.05024 0.356336 
10 4 1.82812 98.6074 0.874371 -0.864665 
11 3 1.58844 98.2731 1.70612 0.379243 
2 4 97.4078 1.36775 99.493 -0.638363 
6 3 96.5526 1.18664 99.114 0.349601 
5 2 1.29403 99.9969 99.6237 2.08262 
14 4 2.4784 99.7836 98.0895 -0.851369 
15 3 3.04967 99.1554 97.7161 0.371752 
1 1 98.2147 99.9886 99.9796 1.12446 
3 4 97.1428 98.7077 99.997 -0.641303 
4 4 99.475 99.6466 98.998 -0.82859 
7 3 97.4219 97.98 99.4494 0.344137 
