ITEM: TIMESTEP
0
ITEM: NUMBER OF ATOMS
15
ITEM: BOX BOUNDS pp pp pp
0.0000000000000000e+00 1.0000000000000000e+02
0.0000000000000000e+00 1.0000000000000000e+02
0.0000000000000000e+00 1.0000000000000000e+02
ITEM: ATOMS id type x y z q 
8 4 98.9265 0.19403 1.32035 -0.629245 
9 3 98.7926 1.04108 1.76425 0.350082 
12 4 2.153 1.49362 98.2743 -0.830814 
13 3 2.44639 2.05846 97.5507 0.342416 
2 4 97.2234 1.33183 99.6317 -0.654708 
6 3 96.4217 1.23701 99.1068 0.346653 
5 2 1.27686 99.7204 98.1386 1.98356 
10 4 2.39055 98.2197 98.7576 -0.84131 
11 3 2.95528 98.1063 99.5287 0.339731 
14 4 1.05855 99.4097 96.2209 -0.841978 
15 3 1.2845 98.7884 95.524 0.357936 
1 1 98.093 99.9591 99.8681 1.19856 
3 4 97.0353 98.6986 99.9059 -0.645846 
4 4 99.3746 99.6784 98.9034 -0.811497 
7 3 97.4049 97.8572 99.615 0.336454 
ITEM: TIMESTEP
171
ITEM: NUMBER OF ATOMS
15
ITEM: BOX BOUNDS pp pp pp
0.0000000000000000e+00 1.0000000000000000e+02
0.0000000000000000e+00 1.0000000000000000e+02
0.0000000000000000e+00 1.0000000000000000e+02
ITEM: ATOMS id type x y z q 
8 4 98.841 0.0244957 1.35785 -0.657533 
9 3 98.6151 0.832753 1.80943 0.346188 
12 4 2.17291 1.44576 98.2287 -0.868584 
13 3 2.12291 2.31925 97.9179 0.368025 
2 4 97.4519 1.40065 99.4804 -0.649884 
6 3 96.596 1.27232 99.0812 0.350552 
5 2 1.38732 99.7044 97.8969 2.01887 
10 4 2.37375 98.2829 98.772 -0.870444 
11 3 2.78148 98.0969 99.5851 0.368095 
14 4 1.21842 99.3589 95.996 -0.868555 
15 3 1.15998 98.6456 95.4056 0.366558 
1 1 98.2373 99.9599 99.7994 1.17063 
3 4 97.1224 98.7181 99.7105 -0.644801 
4 4 99.4606 99.7189 98.7445 -0.774486 
7 3 97.2962 98.013 100.325 0.345359 
