ITEM: TIMESTEP
0
ITEM: NUMBER OF ATOMS
15
ITEM: BOX BOUNDS pp pp pp
0.0000000000000000e+00 1.0000000000000000e+02
0.0000000000000000e+00 1.0000000000000000e+02
0.0000000000000000e+00 1.0000000000000000e+02
ITEM: ATOMS id type x y z q 
12 4 1.20206 1.7986 0.79428 -0.822154 
13 3 1.86212 2.47633 0.61052 0.34165 
8 4 98.9265 0.19403 1.32035 -0.756321 
9 3 98.7926 1.04108 1.76425 0.372893 
10 4 1.46725 98.5236 1.2555 -0.832364 
11 3 1.19539 98.3615 2.16444 0.361703 
2 4 97.2234 1.33183 99.6317 -0.639176 
6 3 96.4217 1.23701 99.1068 0.355251 
5 2 1.08161 99.9875 99.997 2.02939 
14 4 2.53793 99.9104 98.695 -0.841826 
15 3 3.3238 99.4072 98.467 0.36316 
1 1 98.093 99.9591 99.8681 1.13854 
3 4 97.0353 98.6986 99.9059 -0.634079 
4 4 99.3746 99.6784 98.9034 -0.77633 
7 3 97.4049 97.8572 99.615 0.339654 
ITEM: TIMESTEP
437
ITEM: NUMBER OF ATOMS
15
ITEM: BOX BOUNDS pp pp pp
0.0000000000000000e+00 1.0000000000000000e+02
0.0000000000000000e+00 1.0000000000000000e+02
0.0000000000000000e+00 1.0000000000000000e+02
ITEM: ATOMS id type x y z q 
12 4 1.45521 1.82182 0.729222 -0.850088 
13 3 1.94425 2.57477 0.498084 0.37818 
8 4 98.8993 0.244472 1.39915 -0.759013 
9 3 98.4207 0.901708 1.92475 0.356344 
10 4 1.52999 98.576 1.2458 -0.857182 
11 3 1.28027 98.2243 2.06706 0.378598 
2 4 97.2757 1.37201 99.4589 -0.637551 
6 3 96.4078 1.20554 99.1029 0.351979 
5 2 1.05318 100.039 100.05 2.09452 
14 4 2.48963 99.9063 98.7256 -0.834623 
15 3 3.21202 99.3636 98.5156 0.376415 
1 1 98.0891 99.9845 99.8994 1.08575 
3 4 97.0606 98.6742 99.9574 -0.638435 
4 4 99.408 99.6808 98.9807 -0.788875 
7 3 97.4164 97.8931 99.5444 0.343977 
