ITEM: TIMESTEP
0
ITEM: NUMBER OF ATOMS
15
ITEM: BOX BOUNDS pp pp pp
0.0000000000000000e+00 1.0000000000000000e+02
0.0000000000000000e+00 1.0000000000000000e+02
0.0000000000000000e+00 1.0000000000000000e+02
ITEM: ATOMS id type x y z q 
12 4 1.47804 1.77808 0.50878 -0.824522 
13 3 2.12093 2.43999 0.23071 0.342387 
8 4 98.9265 0.19403 1.32035 -0.720675 
9 3 98.7926 1.04108 1.76425 0.362379 
10 4 1.73822 98.5029 0.97138 -0.835104 
11 3 1.5864 98.3553 1.91028 0.355797 
2 4 97.2234 1.33183 99.6317 -0.642365 
6 3 96.4217 1.23701 99.1068 0.354123 
5 2 1.21744 99.9622 99.757 2.01197 
14 4 2.48613 99.8419 98.2745 -0.839077 
15 3 3.22479 99.3202 97.9506 0.36264 
1 1 98.093 99.9591 99.8681 1.15191 
3 4 97.0353 98.6986 99.9059 -0.636196 
4 4 99.3746 99.6784 98.9034 -0.783002 
7 3 97.4049 97.8572 99.615 0.339729 
ITEM: TIMESTEP
115
ITEM: NUMBER OF ATOMS
15
ITEM: BOX BOUNDS pp pp pp
0.0000000000000000e+00 1.0000000000000000e+02
0.0000000000000000e+00 1.0000000000000000e+02
0.0000000000000000e+00 1.0000000000000000e+02
ITEM: ATOMS id type x y z q 
12 4 1.69891 1.85676 0.461606 -0.845862 
13 3 2.23837 2.52234 0.107933 0.382866 
8 4 99.4264 0.289781 1.35479 -0.816292 
9 3 98.9817 0.977377 1.83843 0.362014 
10 4 1.77168 98.5935 1.03157 -0.851874 
11 3 1.64023 98.1613 1.8411 0.379316 
2 4 97.1304 1.31206 99.4533 -0.637669 
6 3 96.2898 1.15049 99.033 0.348262 
5 2 1.03344 100.079 100.001 2.19335 
14 4 2.26647 99.8709 98.4858 -0.823833 
15 3 2.84818 99.2436 98.1289 0.381577 
1 1 97.9871 99.9438 99.8024 1.01625 
3 4 97.0658 98.5761 99.8762 -0.642402 
4 4 99.3735 99.7521 98.9885 -0.787137 
7 3 97.372 97.8688 99.3142 0.341431 
