ITEM: TIMESTEP
0
ITEM: NUMBER OF ATOMS
15
ITEM: BOX BOUNDS pp pp pp
0.0000000000000000e+00 1.0000000000000000e+02
0.0000000000000000e+00 1.0000000000000000e+02
0.0000000000000000e+00 1.0000000000000000e+02
ITEM: ATOMS id type x y z q 
8 4 98.9265 0.19403 1.32035 -0.677327 
9 3 98.7926 1.04108 1.76425 0.352905 
10 4 2.13895 98.4404 0.34241 -0.838378 
11 3 2.22301 98.3142 1.29287 0.347624 
12 4 1.88761 1.71564 99.8754 -0.828216 
13 3 2.46305 2.34612 99.428 0.342822 
2 4 97.2234 1.33183 99.6317 -0.647505 
6 3 96.4217 1.23701 99.1068 0.35176 
5 2 1.3818 99.9001 99.2601 1.99536 
14 4 2.2317 99.7042 97.5105 -0.837616 
15 3 2.84607 99.1475 97.0253 0.361337 
1 1 98.093 99.9591 99.8681 1.17292 
3 4 97.0353 98.6986 99.9059 -0.639866 
4 4 99.3746 99.6784 98.9034 -0.795034 
7 3 97.4049 97.8572 99.615 0.339219 
ITEM: TIMESTEP
126
ITEM: NUMBER OF ATOMS
15
ITEM: BOX BOUNDS pp pp pp
0.0000000000000000e+00 1.0000000000000000e+02
0.0000000000000000e+00 1.0000000000000000e+02
0.0000000000000000e+00 1.0000000000000000e+02
ITEM: ATOMS id type x y z q 
8 4 98.9427 0.191455 1.48453 -0.67516 
9 3 98.4273 0.762242 2.04599 0.3526 
10 4 2.08693 98.5585 0.382109 -0.867992 
11 3 1.97091 98.2751 1.25799 0.377783 
12 4 1.89247 1.71248 99.7204 -0.861289 
13 3 2.12288 2.53272 99.3532 0.374659 
2 4 97.4994 1.40176 99.5155 -0.643033 
6 3 96.6401 1.2504 99.1322 0.34927 
5 2 1.41848 99.9138 99.1613 2.07785 
14 4 2.29377 99.6364 97.4466 -0.861724 
15 3 2.76214 98.981 96.9858 0.369024 
1 1 98.2725 99.991 99.9661 1.14827 
3 4 97.1597 98.7456 99.9639 -0.642765 
4 4 99.4967 99.6352 98.9487 -0.840979 
7 3 97.4581 97.9777 99.4859 0.343477 
