ITEM: TIMESTEP
0
ITEM: NUMBER OF ATOMS
15
ITEM: BOX BOUNDS pp pp pp
0.0000000000000000e+00 1.0000000000000000e+02
0.0000000000000000e+00 1.0000000000000000e+02
0.0000000000000000e+00 1.0000000000000000e+02
ITEM: ATOMS id type x y z q 
8 4 98.9265 0.19403 1.32035 -0.665464 
9 3 98.7926 1.04108 1.76425 0.351257 
10 4 2.25041 98.4081 0.07012 -0.839223 
11 3 2.42729 98.2879 1.00853 0.345352 
12 4 2.0022 1.68332 99.6008 -0.8292 
13 3 2.53927 2.30129 99.0924 0.342802 
2 4 97.2234 1.33183 99.6317 -0.649192 
6 3 96.4217 1.23701 99.1068 0.3508 
5 2 1.41048 99.8714 99.0557 1.99187 
14 4 2.07802 99.6489 97.2317 -0.83786 
15 3 2.63243 99.079 96.6927 0.360752 
1 1 98.093 99.9591 99.8681 1.17956 
3 4 97.0353 98.6986 99.9059 -0.641154 
4 4 99.3746 99.6784 98.9034 -0.799153 
7 3 97.4049 97.8572 99.615 0.338851 
ITEM: TIMESTEP
93
ITEM: NUMBER OF ATOMS
15
ITEM: BOX BOUNDS pp pp pp
0.0000000000000000e+00 1.0000000000000000e+02
0.0000000000000000e+00 1.0000000000000000e+02
0.0000000000000000e+00 1.0000000000000000e+02
ITEM: ATOMS id type x y z q 
8 4 98.9205 0.231177 1.4444 -0.665273 
9 3 98.4782 0.911007 1.94414 0.351379 
10 4 2.17634 98.4864 0.0688927 -0.869515 
11 3 2.24028 98.2675 0.968406 0.374633 
12 4 1.97854 1.6249 99.5145 -0.864293 
13 3 2.31014 2.41843 99.1658 0.372057 
2 4 97.4505 1.38441 99.4734 -0.644761 
6 3 96.5626 1.22306 99.1671 0.350277 
5 2 1.41709 99.862 98.9261 2.07022 
14 4 2.14131 99.612 97.1398 -0.865427 
15 3 2.59787 98.977 96.6407 0.367998 
1 1 98.2465 99.9895 99.9342 1.15857 
3 4 97.1433 98.736 99.9678 -0.642825 
4 4 99.4649 99.6282 98.9098 -0.836571 
7 3 97.484 97.9255 99.6024 0.343526 
