ITEM: TIMESTEP
0
ITEM: NUMBER OF ATOMS
15
ITEM: BOX BOUNDS pp pp pp
0.0000000000000000e+00 1.0000000000000000e+02
0.0000000000000000e+00 1.0000000000000000e+02
0.0000000000000000e+00 1.0000000000000000e+02
ITEM: ATOMS id type x y z q 
12 4 1.7581 1.74165 0.11675 -0.827073 
8 4 98.9265 0.19403 1.32035 -0.690401 
9 3 98.7926 1.04108 1.76425 0.355258 
10 4 2.01252 98.4663 0.58191 -0.837411 
11 3 2.01068 98.3335 1.53517 0.350153 
13 3 2.3631 2.38363 99.7287 0.34277 
2 4 97.2234 1.33183 99.6317 -0.645786 
6 3 96.4217 1.23701 99.1068 0.352635 
5 2 1.33713 99.9246 99.4448 1.99975 
14 4 2.34695 99.7548 97.7795 -0.837731 
15 3 3.01124 99.2106 97.349 0.361845 
1 1 98.093 99.9591 99.8681 1.166 
3 4 97.0353 98.6986 99.9059 -0.638601 
4 4 99.3746 99.6784 98.9034 -0.79089 
7 3 97.4049 97.8572 99.615 0.339483 
ITEM: TIMESTEP
101
ITEM: NUMBER OF ATOMS
15
ITEM: BOX BOUNDS pp pp pp
0.0000000000000000e+00 1.0000000000000000e+02
0.0000000000000000e+00 1.0000000000000000e+02
0.0000000000000000e+00 1.0000000000000000e+02
ITEM: ATOMS id type x y z q 
12 4 1.79895 1.73746 -0.025047 -0.860412 
8 4 98.9137 0.221539 1.47625 -0.686522 
9 3 98.412 0.821469 2.01944 0.354218 
10 4 1.97182 98.5745 0.597234 -0.866413 
11 3 1.82573 98.2862 1.46758 0.377988 
13 3 2.17438 2.52442 99.6589 0.375304 
2 4 97.4424 1.3803 99.5016 -0.641393 
6 3 96.5769 1.21299 99.1407 0.34996 
5 2 1.35844 99.9471 99.364 2.08048 
14 4 2.39776 99.7141 97.7327 -0.857571 
15 3 2.92882 99.0794 97.3126 0.369994 
1 1 98.2372 99.9872 99.9669 1.14049 
3 4 97.1477 98.7221 99.983 -0.641838 
4 4 99.4755 99.6398 98.963 -0.838116 
7 3 97.4504 97.9638 99.4925 0.343834 
