ITEM: TIMESTEP
0
ITEM: NUMBER OF ATOMS
15
ITEM: BOX BOUNDS pp pp pp
0.0000000000000000e+00 1.0000000000000000e+02
0.0000000000000000e+00 1.0000000000000000e+02
0.0000000000000000e+00 1.0000000000000000e+02
ITEM: ATOMS id type x y z q 
12 4 1.27875 1.79403 0.72236 -0.82277 
13 3 1.93553 2.46765 0.51343 0.341888 
8 4 98.9265 0.19403 1.32035 -0.745642 
9 3 98.7926 1.04108 1.76425 0.369553 
10 4 1.5426 98.519 1.18388 -0.833184 
11 3 1.30206 98.3609 2.10231 0.360026 
2 4 97.2234 1.33183 99.6317 -0.640051 
6 3 96.4217 1.23701 99.1068 0.354965 
5 2 1.12067 99.9813 99.9353 2.02388 
14 4 2.52982 99.8926 98.5831 -0.840907 
15 3 3.30449 99.3845 98.3291 0.363038 
1 1 98.093 99.9591 99.8681 1.14223 
3 4 97.0353 98.6986 99.9059 -0.634647 
4 4 99.3746 99.6784 98.9034 -0.778077 
7 3 97.4049 97.8572 99.615 0.339704 
ITEM: TIMESTEP
55
ITEM: NUMBER OF ATOMS
15
ITEM: BOX BOUNDS pp pp pp
0.0000000000000000e+00 1.0000000000000000e+02
0.0000000000000000e+00 1.0000000000000000e+02
0.0000000000000000e+00 1.0000000000000000e+02
ITEM: ATOMS id type x y z q 
12 4 1.4855 1.79099 0.663124 -0.850014 
13 3 1.98023 2.54372 0.44415 0.376958 
8 4 98.9514 0.241532 1.36125 -0.755286 
9 3 98.5009 0.914076 1.88894 0.356269 
10 4 1.57366 98.5698 1.16889 -0.858009 
11 3 1.36917 98.2542 2.01715 0.378747 
2 4 97.272 1.37816 99.4688 -0.639223 
6 3 96.4022 1.21774 99.1152 0.351293 
5 2 1.07314 100.017 99.9641 2.10128 
14 4 2.48002 99.885 98.609 -0.838141 
15 3 3.21287 99.3571 98.3966 0.375301 
1 1 98.0885 99.9859 99.8863 1.09496 
3 4 97.0687 98.6716 99.9664 -0.640418 
4 4 99.3979 99.6886 98.9597 -0.79723 
7 3 97.4297 97.8814 99.5754 0.343509 
