ITEM: TIMESTEP
0
ITEM: NUMBER OF ATOMS
15
ITEM: BOX BOUNDS pp pp pp
0.0000000000000000e+00 1.0000000000000000e+02
0.0000000000000000e+00 1.0000000000000000e+02
0.0000000000000000e+00 1.0000000000000000e+02
ITEM: ATOMS id type x y z q 
8 4 98.9265 0.19403 1.32035 -0.645943 
9 3 98.7926 1.04108 1.76425 0.349802 
11 3 2.75833 98.2151 0.35015 0.341929 
12 4 2.14934 1.60278 98.9921 -0.830455 
13 3 2.5859 2.19497 98.3697 0.342619 
2 4 97.2234 1.33183 99.6317 -0.652168 
6 3 96.4217 1.23701 99.1068 0.348801 
5 2 1.40186 99.8044 98.6213 1.98711 
10 4 2.39179 98.328 99.4674 -0.840489 
14 4 1.66391 99.5337 96.703 -0.839303 
15 3 2.07513 98.9378 96.0717 0.359455 
1 1 98.093 99.9591 99.8681 1.19061 
3 4 97.0353 98.6986 99.9059 -0.643567 
4 4 99.3746 99.6784 98.9034 -0.806267 
7 3 97.4049 97.8572 99.615 0.337859 
ITEM: TIMESTEP
93
ITEM: NUMBER OF ATOMS
15
ITEM: BOX BOUNDS pp pp pp
0.0000000000000000e+00 1.0000000000000000e+02
0.0000000000000000e+00 1.0000000000000000e+02
0.0000000000000000e+00 1.0000000000000000e+02
ITEM: ATOMS id type x y z q 
8 4 98.8765 0.206616 1.43646 -0.652214 
9 3 98.4588 0.914799 1.91783 0.348888 
11 3 2.58378 98.1866 0.336924 0.370475 
12 4 2.13326 1.53207 98.9287 -0.867171 
13 3 2.31888 2.35251 98.5375 0.370423 
2 4 97.4637 1.40249 99.4514 -0.646817 
6 3 96.5655 1.25116 99.1709 0.35079 
5 2 1.44134 99.7823 98.4566 2.04539 
10 4 2.33143 98.3827 99.4653 -0.870982 
14 4 1.74433 99.4874 96.5619 -0.868436 
15 3 2.03849 98.8232 95.9842 0.366247 
1 1 98.2444 99.9965 99.904 1.16824 
3 4 97.1238 98.7582 99.9047 -0.644441 
4 4 99.4656 99.6371 98.8779 -0.813106 
7 3 97.5085 97.9004 99.7565 0.342711 
