ITEM: TIMESTEP
0
ITEM: NUMBER OF ATOMS
15
ITEM: BOX BOUNDS pp pp pp
0.0000000000000000e+00 1.0000000000000000e+02
0.0000000000000000e+00 1.0000000000000000e+02
0.0000000000000000e+00 1.0000000000000000e+02
ITEM: ATOMS id type x y z q 
4 1 97.5217 1.37665 0.73697 -0.643861 
9 3 96.6339 1.73444 0.62576 0.344327 
12 1 2.04402 99.7079 1.78758 -0.882959 
13 3 2.51011 99.6839 2.62313 0.365776 
2 2 97.8095 99.9165 0.01716 1.21569 
3 1 99.425 99.7156 0.01654 -0.842655 
5 1 97.0825 98.6355 0.78664 -0.658335 
7 3 97.5606 98.2639 1.53613 0.330893 
14 1 1.78195 1.7752 99.3889 -0.884082 
15 3 1.91399 2.68442 99.1209 0.373979 
1 4 1.37839 99.9863 99.9897 2.10237 
10 1 2.15239 98.6869 98.7804 -0.883168 
11 3 2.65751 98.1489 98.1711 0.366719 
6 1 97.1149 99.9695 98.5163 -0.645984 
8 3 96.8522 99.1175 98.1502 0.341291 
ITEM: TIMESTEP
122
ITEM: NUMBER OF ATOMS
15
ITEM: BOX BOUNDS pp pp pp
0.0000000000000000e+00 1.0000000000000000e+02
0.0000000000000000e+00 1.0000000000000000e+02
0.0000000000000000e+00 1.0000000000000000e+02
ITEM: ATOMS id type x y z q 
4 1 97.5164 1.38826 0.768145 -0.643309 
9 3 96.7311 1.805 0.426938 0.346685 
12 1 2.05532 99.5906 1.86347 -0.866958 
13 3 2.67595 99.978 2.43405 0.367137 
2 2 97.8473 99.9341 0.0138021 1.18986 
3 1 99.4432 99.6382 0.0379705 -0.865202 
5 1 97.045 98.6912 0.789122 -0.650942 
7 3 97.5759 98.2795 1.46333 0.34378 
14 1 1.84 1.57382 99.4513 -0.878051 
15 3 1.43707 2.3867 99.2564 0.370435 
1 4 1.369 99.7895 100.057 2.08458 
10 1 2.22069 98.5311 98.85 -0.866741 
11 3 2.78064 98.5227 98.1107 0.368963 
6 1 97.2526 100.005 98.4531 -0.64916 
8 3 96.6488 99.2894 98.2719 0.348921 
