ITEM: TIMESTEP
0
ITEM: NUMBER OF ATOMS
15
ITEM: BOX BOUNDS pp pp pp
0.0000000000000000e+00 1.0000000000000000e+02
0.0000000000000000e+00 1.0000000000000000e+02
0.0000000000000000e+00 1.0000000000000000e+02
ITEM: ATOMS id type x y z q 
4 1 97.269 1.02112 0.75671 -0.6373 
9 3 96.3317 1.21957 0.65393 0.344751 
12 1 2.04402 99.7079 1.78758 -0.884216 
13 3 2.51011 99.6839 2.62313 0.365404 
2 2 97.7992 99.6333 0.03161 1.21881 
3 1 99.425 99.7156 0.01654 -0.842771 
5 1 97.3123 98.2453 0.80491 -0.661041 
7 3 97.8542 97.9619 1.54949 0.328504 
14 1 1.78195 1.7752 99.3889 -0.883821 
15 3 1.91399 2.68442 99.1209 0.37345 
1 4 1.37839 99.9863 99.9897 2.1007 
10 1 2.15239 98.6869 98.7804 -0.884512 
11 3 2.65751 98.1489 98.1711 0.366431 
6 1 97.0927 99.5656 98.537 -0.644582 
8 3 96.9784 98.6811 98.1715 0.340198 
ITEM: TIMESTEP
136
ITEM: NUMBER OF ATOMS
15
ITEM: BOX BOUNDS pp pp pp
0.0000000000000000e+00 1.0000000000000000e+02
0.0000000000000000e+00 1.0000000000000000e+02
0.0000000000000000e+00 1.0000000000000000e+02
ITEM: ATOMS id type x y z q 
4 1 97.1559 0.942178 0.863219 -0.639959 
9 3 96.3874 1.29128 0.42084 0.348189 
12 1 2.06758 99.5719 1.8285 -0.868547 
13 3 2.67042 99.96 2.41755 0.366066 
2 2 97.8219 99.6477 0.0411604 1.1954 
3 1 99.4425 99.728 0.0381715 -0.86475 
5 1 97.3485 98.219 0.765264 -0.651805 
7 3 97.7908 98.0598 1.59296 0.342571 
14 1 1.91943 1.59278 99.4536 -0.880139 
15 3 1.54798 2.41248 99.2259 0.36683 
1 4 1.37074 99.8231 100.033 2.08366 
10 1 2.15061 98.5376 98.8045 -0.865884 
11 3 2.80223 98.488 98.1464 0.367946 
6 1 97.2025 99.6441 98.4886 -0.649968 
8 3 96.8222 98.7993 98.2635 0.350385 
