ITEM: TIMESTEP
0
ITEM: NUMBER OF ATOMS
15
ITEM: BOX BOUNDS pp pp pp
0.0000000000000000e+00 1.0000000000000000e+02
0.0000000000000000e+00 1.0000000000000000e+02
0.0000000000000000e+00 1.0000000000000000e+02
ITEM: ATOMS id type x y z q 
4 1 97.5503 1.40966 0.7351 -0.644543 
9 3 96.669 1.78286 0.62307 0.344296 
12 1 2.04402 99.7079 1.78758 -0.882827 
13 3 2.51011 99.6839 2.62313 0.365825 
2 2 97.8132 99.9446 0.01571 1.21523 
3 1 99.425 99.7156 0.01654 -0.842549 
5 1 97.0634 98.6766 0.78468 -0.658054 
7 3 97.5342 98.2968 1.53463 0.331126 
14 1 1.78195 1.7752 99.3889 -0.884082 
15 3 1.91399 2.68442 99.1209 0.374061 
6 1 97.1211 0.00954 98.5142 -0.646112 
1 4 1.37839 99.9863 99.9897 2.10251 
10 1 2.15239 98.6869 98.7804 -0.883034 
11 3 2.65751 98.1489 98.1711 0.366754 
8 3 96.8438 99.1622 98.148 0.341405 
ITEM: TIMESTEP
200
ITEM: NUMBER OF ATOMS
15
ITEM: BOX BOUNDS pp pp pp
0.0000000000000000e+00 1.0000000000000000e+02
0.0000000000000000e+00 1.0000000000000000e+02
0.0000000000000000e+00 1.0000000000000000e+02
ITEM: ATOMS id type x y z q 
4 1 97.5371 1.41219 0.78277 -0.642576 
9 3 96.835 1.89031 0.351347 0.346368 
12 1 2.10422 99.5705 1.85481 -0.867459 
13 3 2.64663 100.022 2.45709 0.367803 
2 2 97.8571 99.9507 0.03671 1.18875 
3 1 99.4469 99.6295 0.093734 -0.866059 
5 1 97.0148 98.7175 0.784221 -0.648674 
7 3 97.5238 98.2897 1.46553 0.344341 
14 1 1.80935 1.57057 99.4686 -0.877845 
15 3 1.38695 2.36768 99.2515 0.370007 
6 1 97.3051 0.0464808 98.462 -0.65278 
1 4 1.37264 99.7758 100.068 2.0853 
10 1 2.18989 98.5366 98.8176 -0.865902 
11 3 2.74636 98.5396 98.0752 0.369266 
8 3 96.6826 99.352 98.2644 0.349462 
