ITEM: TIMESTEP
0
ITEM: NUMBER OF ATOMS
15
ITEM: BOX BOUNDS pp pp pp
0.0000000000000000e+00 1.0000000000000000e+02
0.0000000000000000e+00 1.0000000000000000e+02
0.0000000000000000e+00 1.0000000000000000e+02
ITEM: ATOMS id type x y z q 
4 1 97.5217 1.37665 0.73697 -0.643861 
9 3 96.6339 1.73444 0.62576 0.344327 
12 1 2.04402 99.7079 1.78758 -0.882959 
13 3 2.51011 99.6839 2.62313 0.365776 
2 2 97.8095 99.9165 0.01716 1.21569 
3 1 99.425 99.7156 0.01654 -0.842655 
5 1 97.0825 98.6355 0.78664 -0.658335 
7 3 97.5606 98.2639 1.53613 0.330893 
14 1 1.78195 1.7752 99.3889 -0.884082 
15 3 1.91399 2.68442 99.1209 0.373979 
1 4 1.37839 99.9863 99.9897 2.10237 
10 1 2.15239 98.6869 98.7804 -0.883168 
11 3 2.65751 98.1489 98.1711 0.366719 
6 1 97.1149 99.9695 98.5163 -0.645984 
8 3 96.8522 99.1175 98.1502 0.341291 
ITEM: TIMESTEP
187
ITEM: NUMBER OF ATOMS
15
ITEM: BOX BOUNDS pp pp pp
0.0000000000000000e+00 1.0000000000000000e+02
0.0000000000000000e+00 1.0000000000000000e+02
0.0000000000000000e+00 1.0000000000000000e+02
ITEM: ATOMS id type x y z q 
4 1 97.5273 1.34653 0.799115 -0.647778 
9 3 96.7514 1.78909 0.468661 0.345833 
12 1 2.06596 99.585 1.85568 -0.867028 
13 3 2.66365 99.993 2.43638 0.366953 
2 2 97.8535 99.9097 0.00957662 1.19246 
3 1 99.4509 99.6211 0.0328878 -0.861982 
5 1 97.0421 98.6632 0.768173 -0.651605 
7 3 97.4553 98.3794 1.57737 0.343978 
14 1 1.82686 1.57205 99.4504 -0.87811 
15 3 1.41279 2.3765 99.2441 0.370109 
1 4 1.37544 99.7811 100.051 2.08572 
10 1 2.23222 98.5379 98.8309 -0.865765 
11 3 2.777 98.5402 98.0797 0.368232 
6 1 97.2826 100.02 98.4429 -0.650455 
8 3 96.7218 99.2885 98.2003 0.349439 
