ITEM: TIMESTEP
0
ITEM: NUMBER OF ATOMS
15
ITEM: BOX BOUNDS pp pp pp
0.0000000000000000e+00 1.0000000000000000e+02
0.0000000000000000e+00 1.0000000000000000e+02
0.0000000000000000e+00 1.0000000000000000e+02
ITEM: ATOMS id type x y z q 
4 1 98.3862 2.03013 0.69801 -0.662727 
9 3 97.7349 2.72833 0.56795 0.344149 
12 1 2.04402 99.7079 1.78758 -0.879106 
13 3 2.51011 99.6839 2.62313 0.367671 
3 1 99.425 99.7156 0.01654 -0.834815 
5 1 96.8301 99.7309 0.73274 -0.650324 
7 3 97.0909 99.1979 1.49187 0.336344 
14 1 1.78195 1.7752 99.3889 -0.881677 
15 3 1.91399 2.68442 99.1209 0.377411 
2 2 98.0457 0.57955 99.9819 1.19474 
6 1 97.4698 0.90936 98.4662 -0.648721 
8 3 96.8796 0.24512 98.0928 0.344424 
1 4 1.37839 99.9863 99.9897 2.10476 
10 1 2.15239 98.6869 98.7804 -0.880039 
11 3 2.65751 98.1489 98.1711 0.367911 
ITEM: TIMESTEP
190
ITEM: NUMBER OF ATOMS
15
ITEM: BOX BOUNDS pp pp pp
0.0000000000000000e+00 1.0000000000000000e+02
0.0000000000000000e+00 1.0000000000000000e+02
0.0000000000000000e+00 1.0000000000000000e+02
ITEM: ATOMS id type x y z q 
4 1 98.4818 2.16688 0.472522 -0.661239 
9 3 97.7144 2.59242 0.843123 0.34621 
12 1 2.10321 99.5974 1.87125 -0.864641 
13 3 2.63585 100.065 2.46978 0.368598 
3 1 99.4361 99.6774 0.124402 -0.853788 
5 1 96.8457 100.02 0.77468 -0.66137 
7 3 97.0774 99.221 1.23885 0.345596 
14 1 1.81587 1.55722 99.4596 -0.872705 
15 3 1.4019 2.3756 99.315 0.388413 
2 2 98.1362 0.630238 99.9079 1.16098 
6 1 97.6887 0.686333 98.2978 -0.635975 
8 3 96.7786 0.432868 98.172 0.347474 
1 4 1.37083 99.7718 100.081 2.08558 
10 1 2.173 98.5123 98.8415 -0.863943 
11 3 2.64097 98.5038 98.0402 0.370814 
