ITEM: TIMESTEP
0
ITEM: NUMBER OF ATOMS
15
ITEM: BOX BOUNDS pp pp pp
0.0000000000000000e+00 1.0000000000000000e+02
0.0000000000000000e+00 1.0000000000000000e+02
0.0000000000000000e+00 1.0000000000000000e+02
ITEM: ATOMS id type x y z q 
4 1 97.4663 1.30916 0.74076 -0.642515 
9 3 96.5664 1.63581 0.63122 0.344397 
12 1 2.04402 99.7079 1.78758 -0.883221 
13 3 2.51011 99.6839 2.62313 0.365683 
2 2 97.8035 99.8601 0.02007 1.21654 
3 1 99.425 99.7156 0.01654 -0.842819 
5 1 97.123 98.5543 0.79049 -0.658896 
7 3 97.615 98.1995 1.53903 0.330423 
14 1 1.78195 1.7752 99.3889 -0.884065 
15 3 1.91399 2.68442 99.1209 0.373836 
1 4 1.37839 99.9863 99.9897 2.10208 
10 1 2.15239 98.6869 98.7804 -0.883438 
11 3 2.65751 98.1489 98.1711 0.366651 
6 1 97.1048 99.8891 98.5205 -0.645717 
8 3 96.8713 99.0286 98.1546 0.341063 
ITEM: TIMESTEP
229
ITEM: NUMBER OF ATOMS
15
ITEM: BOX BOUNDS pp pp pp
0.0000000000000000e+00 1.0000000000000000e+02
0.0000000000000000e+00 1.0000000000000000e+02
0.0000000000000000e+00 1.0000000000000000e+02
ITEM: ATOMS id type x y z q 
4 1 97.4665 1.21602 0.853439 -0.651187 
9 3 96.7858 1.7248 0.422702 0.34519 
12 1 2.10458 99.5817 1.84827 -0.866631 
13 3 2.65669 100.03 2.44447 0.367262 
2 2 97.8591 99.8173 0.0264272 1.19322 
3 1 99.4672 99.5965 0.0498989 -0.859472 
5 1 97.09 98.5199 0.742979 -0.64951 
7 3 97.3379 98.3864 1.65231 0.344976 
14 1 1.80303 1.57306 99.4588 -0.877841 
15 3 1.3697 2.3626 99.2348 0.368268 
1 4 1.39055 99.7698 100.053 2.08622 
10 1 2.24321 98.5518 98.8042 -0.865178 
11 3 2.76742 98.5696 98.0388 0.368118 
6 1 97.2962 99.9581 98.4599 -0.653951 
8 3 96.7758 99.2085 98.1853 0.350518 
