ITEM: TIMESTEP
0
ITEM: NUMBER OF ATOMS
15
ITEM: BOX BOUNDS pp pp pp
0.0000000000000000e+00 1.0000000000000000e+02
0.0000000000000000e+00 1.0000000000000000e+02
0.0000000000000000e+00 1.0000000000000000e+02
ITEM: ATOMS id type x y z q 
4 1 97.5217 1.37665 0.73697 -0.643861 
9 3 96.6339 1.73444 0.62576 0.344327 
12 1 2.04402 99.7079 1.78758 -0.882959 
13 3 2.51011 99.6839 2.62313 0.365776 
2 2 97.8095 99.9165 0.01716 1.21569 
3 1 99.425 99.7156 0.01654 -0.842655 
5 1 97.0825 98.6355 0.78664 -0.658335 
7 3 97.5606 98.2639 1.53613 0.330893 
14 1 1.78195 1.7752 99.3889 -0.884082 
15 3 1.91399 2.68442 99.1209 0.373979 
1 4 1.37839 99.9863 99.9897 2.10237 
10 1 2.15239 98.6869 98.7804 -0.883168 
11 3 2.65751 98.1489 98.1711 0.366719 
6 1 97.1149 99.9695 98.5163 -0.645984 
8 3 96.8522 99.1175 98.1502 0.341291 
ITEM: TIMESTEP
326
ITEM: NUMBER OF ATOMS
15
ITEM: BOX BOUNDS pp pp pp
0.0000000000000000e+00 1.0000000000000000e+02
0.0000000000000000e+00 1.0000000000000000e+02
0.0000000000000000e+00 1.0000000000000000e+02
ITEM: ATOMS id type x y z q 
4 1 96.7953 1.79228 0.518389 -0.602352 
9 3 96.1473 1.32579 1.04327 0.348521 
12 1 1.50083 99.3411 1.80418 -0.855905 
13 3 2.17932 99.5361 2.40551 0.371462 
2 2 97.7318 0.805376 99.5963 0.855838 
3 1 99.3327 1.07805 99.8873 -0.662484 
5 1 99.0728 99.156 99.8073 -0.794982 
7 3 98.2781 98.7965 0.356209 0.397683 
14 1 2.20488 1.2137 99.5652 -0.856609 
15 3 2.21027 2.13647 99.4737 0.374753 
1 4 0.958842 99.7664 99.9823 2.18416 
10 1 1.78674 98.4448 98.8063 -0.844504 
11 3 2.61624 98.2363 98.4483 0.375734 
6 1 96.7623 99.0751 99.703 -0.61638 
8 3 96.8614 98.6993 98.8502 0.325067 
