ITEM: TIMESTEP
0
ITEM: NUMBER OF ATOMS
15
ITEM: BOX BOUNDS pp pp pp
0.0000000000000000e+00 1.0000000000000000e+02
0.0000000000000000e+00 1.0000000000000000e+02
0.0000000000000000e+00 1.0000000000000000e+02
ITEM: ATOMS id type x y z q 
2 2 97.8531 0.1391 0.00557 1.21115 
4 1 97.7661 1.62609 0.72266 -0.649458 
9 3 96.9375 2.10364 0.60498 0.344127 
12 1 2.04402 99.7079 1.78758 -0.881853 
13 3 2.51011 99.6839 2.62313 0.366237 
3 1 99.425 99.7156 0.01654 -0.84132 
5 1 96.9498 98.9726 0.77041 -0.655997 
7 3 97.3663 98.5393 1.52345 0.332728 
14 1 1.78195 1.7752 99.3889 -0.883919 
15 3 1.91399 2.68442 99.1209 0.374748 
6 1 97.1832 0.28597 98.4998 -0.646978 
1 4 1.37839 99.9863 99.9897 2.10335 
10 1 2.15239 98.6869 98.7804 -0.882102 
11 3 2.65751 98.1489 98.1711 0.367038 
8 3 96.8072 99.4783 98.1322 0.342245 
ITEM: TIMESTEP
137
ITEM: NUMBER OF ATOMS
15
ITEM: BOX BOUNDS pp pp pp
0.0000000000000000e+00 1.0000000000000000e+02
0.0000000000000000e+00 1.0000000000000000e+02
0.0000000000000000e+00 1.0000000000000000e+02
ITEM: ATOMS id type x y z q 
2 2 97.8898 0.167138 -0.0225762 1.18682 
4 1 97.7984 1.66357 0.71649 -0.649902 
9 3 96.9663 2.10398 0.57425 0.346234 
12 1 2.0172 99.6025 1.8592 -0.866167 
13 3 2.66351 99.9587 2.42144 0.367063 
3 1 99.428 99.648 0.00262005 -0.861754 
5 1 96.917 99.0824 0.792449 -0.653887 
7 3 97.3785 98.5993 1.47069 0.343993 
14 1 1.84681 1.57021 99.4315 -0.877473 
15 3 1.45823 2.39671 99.2661 0.373658 
6 1 97.3231 0.292887 98.4098 -0.645453 
1 4 1.35406 99.7943 100.044 2.08586 
10 1 2.22117 98.523 98.8599 -0.865533 
11 3 2.78292 98.508 98.1208 0.368226 
8 3 96.6816 99.6235 98.191 0.348315 
