ITEM: TIMESTEP
0
ITEM: NUMBER OF ATOMS
15
ITEM: BOX BOUNDS pp pp pp
0.0000000000000000e+00 1.0000000000000000e+02
0.0000000000000000e+00 1.0000000000000000e+02
0.0000000000000000e+00 1.0000000000000000e+02
ITEM: ATOMS id type x y z q 
2 2 97.8531 0.1391 0.00557 1.21115 
4 1 97.7661 1.62609 0.72266 -0.649458 
9 3 96.9375 2.10364 0.60498 0.344127 
12 1 2.04402 99.7079 1.78758 -0.881853 
13 3 2.51011 99.6839 2.62313 0.366237 
3 1 99.425 99.7156 0.01654 -0.84132 
5 1 96.9498 98.9726 0.77041 -0.655997 
7 3 97.3663 98.5393 1.52345 0.332728 
14 1 1.78195 1.7752 99.3889 -0.883919 
15 3 1.91399 2.68442 99.1209 0.374748 
6 1 97.1832 0.28597 98.4998 -0.646978 
1 4 1.37839 99.9863 99.9897 2.10335 
10 1 2.15239 98.6869 98.7804 -0.882102 
11 3 2.65751 98.1489 98.1711 0.367038 
8 3 96.8072 99.4783 98.1322 0.342245 
ITEM: TIMESTEP
133
ITEM: NUMBER OF ATOMS
15
ITEM: BOX BOUNDS pp pp pp
0.0000000000000000e+00 1.0000000000000000e+02
0.0000000000000000e+00 1.0000000000000000e+02
0.0000000000000000e+00 1.0000000000000000e+02
ITEM: ATOMS id type x y z q 
2 2 97.8997 0.17397 -0.00539758 1.18332 
4 1 97.7915 1.68303 0.706778 -0.646764 
9 3 96.9846 2.13641 0.482478 0.345997 
12 1 2.06119 99.5847 1.8616 -0.866572 
13 3 2.66058 99.9928 2.44031 0.367938 
3 1 99.4343 99.6478 0.0495663 -0.863753 
5 1 96.9161 99.089 0.797721 -0.651976 
7 3 97.4079 98.5235 1.38523 0.344583 
14 1 1.83415 1.56554 99.4528 -0.876997 
15 3 1.4319 2.3814 99.2685 0.37371 
6 1 97.3382 0.279098 98.4234 -0.647055 
1 4 1.36185 99.7827 100.061 2.08601 
10 1 2.20387 98.5229 98.8477 -0.865507 
11 3 2.76512 98.5145 98.1089 0.369165 
8 3 96.6355 99.657 98.2565 0.3479 
