ITEM: TIMESTEP
0
ITEM: NUMBER OF ATOMS
15
ITEM: BOX BOUNDS pp pp pp
0.0000000000000000e+00 1.0000000000000000e+02
0.0000000000000000e+00 1.0000000000000000e+02
0.0000000000000000e+00 1.0000000000000000e+02
ITEM: ATOMS id type x y z q 
2 2 97.8689 0.19363 0.0027 1.20972 
4 1 97.8324 1.68293 0.71933 -0.650916 
9 3 97.0212 2.18905 0.60009 0.344096 
12 1 2.04402 99.7079 1.78758 -0.88156 
13 3 2.51011 99.6839 2.62313 0.366374 
3 1 99.425 99.7156 0.01654 -0.840813 
5 1 96.9241 99.0596 0.76617 -0.655382 
7 3 97.3239 98.6121 1.52003 0.333175 
14 1 1.78195 1.7752 99.3889 -0.883809 
15 3 1.91399 2.68442 99.1209 0.374989 
6 1 97.2071 0.36336 98.4957 -0.647204 
1 4 1.37839 99.9863 99.9897 2.10356 
10 1 2.15239 98.6869 98.7804 -0.881841 
11 3 2.65751 98.1489 98.1711 0.367127 
8 3 96.8038 99.5691 98.1276 0.342489 
ITEM: TIMESTEP
907
ITEM: NUMBER OF ATOMS
15
ITEM: BOX BOUNDS pp pp pp
0.0000000000000000e+00 1.0000000000000000e+02
0.0000000000000000e+00 1.0000000000000000e+02
0.0000000000000000e+00 1.0000000000000000e+02
ITEM: ATOMS id type x y z q 
2 2 97.533 0.952121 99.4781 0.889328 
4 1 97.1249 1.96235 0.716578 -0.618777 
9 3 96.1893 1.97881 0.906222 0.343324 
12 1 1.47909 99.4176 1.85115 -0.867254 
13 3 2.12244 99.5061 2.51452 0.366152 
3 1 99.546 0.852536 99.4798 -0.64282 
5 1 98.701 99.3439 99.8454 -0.589602 
7 3 98.5671 99.3117 0.798394 0.301048 
14 1 2.48133 1.29421 99.6337 -0.859143 
15 3 2.48025 2.20151 99.4395 0.367845 
6 1 96.2777 99.8618 99.2261 -0.626746 
1 4 1.21677 99.8465 99.9721 2.06729 
10 1 1.87887 98.3878 98.8671 -0.855734 
11 3 2.64211 98.1406 98.4009 0.368314 
8 3 96.605 99.0014 98.9804 0.356772 
