ITEM: TIMESTEP
0
ITEM: NUMBER OF ATOMS
15
ITEM: BOX BOUNDS pp pp pp
0.0000000000000000e+00 1.0000000000000000e+02
0.0000000000000000e+00 1.0000000000000000e+02
0.0000000000000000e+00 1.0000000000000000e+02
ITEM: ATOMS id type x y z q 
4 1 97.269 1.02112 0.75671 -0.6373 
9 3 96.3317 1.21957 0.65393 0.344751 
12 1 2.04402 99.7079 1.78758 -0.884216 
13 3 2.51011 99.6839 2.62313 0.365404 
2 2 97.7992 99.6333 0.03161 1.21881 
3 1 99.425 99.7156 0.01654 -0.842771 
5 1 97.3123 98.2453 0.80491 -0.661041 
7 3 97.8542 97.9619 1.54949 0.328504 
14 1 1.78195 1.7752 99.3889 -0.883821 
15 3 1.91399 2.68442 99.1209 0.37345 
1 4 1.37839 99.9863 99.9897 2.1007 
10 1 2.15239 98.6869 98.7804 -0.884512 
11 3 2.65751 98.1489 98.1711 0.366431 
6 1 97.0927 99.5656 98.537 -0.644582 
8 3 96.9784 98.6811 98.1715 0.340198 
ITEM: TIMESTEP
248
ITEM: NUMBER OF ATOMS
15
ITEM: BOX BOUNDS pp pp pp
0.0000000000000000e+00 1.0000000000000000e+02
0.0000000000000000e+00 1.0000000000000000e+02
0.0000000000000000e+00 1.0000000000000000e+02
ITEM: ATOMS id type x y z q 
4 1 97.21 0.810942 0.950931 -0.655117 
9 3 96.6106 1.3579 0.451157 0.345641 
12 1 2.09017 99.5883 1.83417 -0.865278 
13 3 2.65343 100.012 2.43763 0.367068 
2 2 97.8665 99.5687 0.0465504 1.19791 
3 1 99.4815 99.7108 -0.0305204 -0.856217 
5 1 97.4429 98.1202 0.761366 -0.652481 
7 3 97.2241 98.2077 1.68417 0.347264 
14 1 1.90261 1.59611 99.4554 -0.87817 
15 3 1.50424 2.39391 99.1986 0.364816 
1 4 1.40899 99.8064 100.029 2.08723 
10 1 2.2434 98.5735 98.7832 -0.864767 
11 3 2.79619 98.581 98.0381 0.367084 
6 1 97.1876 99.62 98.5208 -0.65399 
8 3 96.8785 98.7696 98.2227 0.349007 
