ITEM: TIMESTEP
0
ITEM: NUMBER OF ATOMS
15
ITEM: BOX BOUNDS pp pp pp
0.0000000000000000e+00 1.0000000000000000e+02
0.0000000000000000e+00 1.0000000000000000e+02
0.0000000000000000e+00 1.0000000000000000e+02
ITEM: ATOMS id type x y z q 
2 2 97.8274 0.02857 0.01135 1.21366 
4 1 97.6395 1.50563 0.72963 -0.646616 
9 3 96.7792 1.92434 0.61515 0.34421 
12 1 2.04402 99.7079 1.78758 -0.882418 
13 3 2.51011 99.6839 2.62313 0.365989 
3 1 99.425 99.7156 0.01654 -0.842125 
5 1 97.0103 98.8017 0.77868 -0.657188 
7 3 97.4586 98.3982 1.52999 0.33182 
14 1 1.78195 1.7752 99.3889 -0.884051 
15 3 1.91399 2.68442 99.1209 0.374324 
6 1 97.1436 0.12893 98.508 -0.646496 
1 4 1.37839 99.9863 99.9897 2.1029 
10 1 2.15239 98.6869 98.7804 -0.882632 
11 3 2.65751 98.1489 98.1711 0.36687 
8 3 96.8234 99.2971 98.1413 0.34176 
ITEM: TIMESTEP
56
ITEM: NUMBER OF ATOMS
15
ITEM: BOX BOUNDS pp pp pp
0.0000000000000000e+00 1.0000000000000000e+02
0.0000000000000000e+00 1.0000000000000000e+02
0.0000000000000000e+00 1.0000000000000000e+02
ITEM: ATOMS id type x y z q 
2 2 97.5455 0.584797 99.539 0.797442 
4 1 97.2564 1.64789 0.788956 -0.594523 
9 3 96.4416 2.12316 0.77607 0.327879 
12 1 2.02144 99.4542 2.02551 -0.873659 
13 3 2.6955 99.7449 2.57268 0.365918 
3 1 99.5939 0.4924 -0.0458177 -0.632928 
5 1 98.4888 99.0925 99.7898 -0.548944 
7 3 98.1959 98.8121 0.685231 0.318983 
14 1 2.1317 1.40183 99.5865 -0.841011 
15 3 1.8479 2.27166 99.415 0.371943 
6 1 95.9656 99.4267 99.1914 -0.560212 
1 4 1.36953 99.7067 0.20103 2.04317 
10 1 2.07066 98.3807 98.9494 -0.863789 
11 3 2.76998 98.2601 98.3537 0.365651 
8 3 96.1509 99.074 98.3639 0.324078 
