ITEM: TIMESTEP
0
ITEM: NUMBER OF ATOMS
15
ITEM: BOX BOUNDS pp pp pp
0.0000000000000000e+00 1.0000000000000000e+02
0.0000000000000000e+00 1.0000000000000000e+02
0.0000000000000000e+00 1.0000000000000000e+02
ITEM: ATOMS id type x y z q 
4 1 97.269 1.02112 0.75671 -0.6373 
9 3 96.3317 1.21957 0.65393 0.344751 
12 1 2.04402 99.7079 1.78758 -0.884216 
13 3 2.51011 99.6839 2.62313 0.365404 
2 2 97.7992 99.6333 0.03161 1.21881 
3 1 99.425 99.7156 0.01654 -0.842771 
5 1 97.3123 98.2453 0.80491 -0.661041 
7 3 97.8542 97.9619 1.54949 0.328504 
14 1 1.78195 1.7752 99.3889 -0.883821 
15 3 1.91399 2.68442 99.1209 0.37345 
1 4 1.37839 99.9863 99.9897 2.1007 
10 1 2.15239 98.6869 98.7804 -0.884512 
11 3 2.65751 98.1489 98.1711 0.366431 
6 1 97.0927 99.5656 98.537 -0.644582 
8 3 96.9784 98.6811 98.1715 0.340198 
ITEM: TIMESTEP
264
ITEM: NUMBER OF ATOMS
15
ITEM: BOX BOUNDS pp pp pp
0.0000000000000000e+00 1.0000000000000000e+02
0.0000000000000000e+00 1.0000000000000000e+02
0.0000000000000000e+00 1.0000000000000000e+02
ITEM: ATOMS id type x y z q 
4 1 96.8037 0.803967 0.979042 -0.61875 
9 3 95.8823 1.04904 0.927906 0.332603 
12 1 1.82988 99.4712 1.8996 -0.863718 
13 3 2.51556 99.6538 2.49862 0.364011 
2 2 97.3764 100.089 99.5991 0.934497 
3 1 99.5052 0.623456 -0.40771 -0.554267 
5 1 98.8309 99.3346 99.6129 -0.471061 
7 3 98.0979 98.1445 1.46812 0.130122 
14 1 2.36032 1.43583 99.5916 -0.859952 
15 3 2.21677 2.31327 99.3262 0.364529 
1 4 1.33733 99.8416 0.055428 2.04301 
10 1 2.04521 98.42 98.9295 -0.856537 
11 3 2.76122 98.2541 98.3634 0.364178 
6 1 96.2712 99.0049 99.0071 -0.641584 
8 3 96.6669 98.2779 98.5326 0.33292 
