ITEM: TIMESTEP
0
ITEM: NUMBER OF ATOMS
15
ITEM: BOX BOUNDS pp pp pp
0.0000000000000000e+00 1.0000000000000000e+02
0.0000000000000000e+00 1.0000000000000000e+02
0.0000000000000000e+00 1.0000000000000000e+02
ITEM: ATOMS id type x y z q 
4 1 97.4663 1.30916 0.74076 -0.642515 
9 3 96.5664 1.63581 0.63122 0.344397 
12 1 2.04402 99.7079 1.78758 -0.883221 
13 3 2.51011 99.6839 2.62313 0.365683 
2 2 97.8035 99.8601 0.02007 1.21654 
3 1 99.425 99.7156 0.01654 -0.842819 
5 1 97.123 98.5543 0.79049 -0.658896 
7 3 97.615 98.1995 1.53903 0.330423 
14 1 1.78195 1.7752 99.3889 -0.884065 
15 3 1.91399 2.68442 99.1209 0.373836 
1 4 1.37839 99.9863 99.9897 2.10208 
10 1 2.15239 98.6869 98.7804 -0.883438 
11 3 2.65751 98.1489 98.1711 0.366651 
6 1 97.1048 99.8891 98.5205 -0.645717 
8 3 96.8713 99.0286 98.1546 0.341063 
ITEM: TIMESTEP
249
ITEM: NUMBER OF ATOMS
15
ITEM: BOX BOUNDS pp pp pp
0.0000000000000000e+00 1.0000000000000000e+02
0.0000000000000000e+00 1.0000000000000000e+02
0.0000000000000000e+00 1.0000000000000000e+02
ITEM: ATOMS id type x y z q 
4 1 96.7412 1.67181 0.642183 -0.60083 
9 3 95.9615 1.20998 0.948278 0.346036 
12 1 1.54351 99.369 1.81657 -0.854608 
13 3 2.25663 99.5373 2.38487 0.370866 
2 2 97.7112 0.766918 99.6723 0.850083 
3 1 99.312 1.05437 99.983 -0.64905 
5 1 99.0915 99.1521 99.7897 -0.79947 
7 3 98.3025 98.7404 0.317234 0.398966 
14 1 2.18112 1.19999 99.4949 -0.859275 
15 3 2.19513 2.12581 99.4448 0.373467 
1 4 0.966666 99.7536 99.9968 2.18311 
10 1 1.80782 98.3986 98.8668 -0.842937 
11 3 2.6244 98.2178 98.4667 0.375465 
6 1 96.79 98.9975 99.6588 -0.615491 
8 3 96.9285 98.6706 98.7919 0.323671 
