ITEM: TIMESTEP
0
ITEM: NUMBER OF ATOMS
15
ITEM: BOX BOUNDS pp pp pp
0.0000000000000000e+00 1.0000000000000000e+02
0.0000000000000000e+00 1.0000000000000000e+02
0.0000000000000000e+00 1.0000000000000000e+02
ITEM: ATOMS id type x y z q 
2 2 97.8331 0.05637 0.00991 1.21307 
4 1 97.6704 1.53657 0.72785 -0.64732 
9 3 96.8176 1.97019 0.61256 0.344187 
12 1 2.04402 99.7079 1.78758 -0.88228 
13 3 2.51011 99.6839 2.62313 0.366047 
3 1 99.425 99.7156 0.01654 -0.84195 
5 1 96.994 98.8441 0.77664 -0.656895 
7 3 97.4346 98.4329 1.52839 0.332049 
14 1 1.78195 1.7752 99.3889 -0.884028 
15 3 1.91399 2.68442 99.1209 0.374423 
6 1 97.1524 0.16844 98.506 -0.646616 
1 4 1.37839 99.9863 99.9897 2.10302 
10 1 2.15239 98.6869 98.7804 -0.882498 
11 3 2.65751 98.1489 98.1711 0.36691 
8 3 96.8182 99.3423 98.139 0.341881 
ITEM: TIMESTEP
107
ITEM: NUMBER OF ATOMS
15
ITEM: BOX BOUNDS pp pp pp
0.0000000000000000e+00 1.0000000000000000e+02
0.0000000000000000e+00 1.0000000000000000e+02
0.0000000000000000e+00 1.0000000000000000e+02
ITEM: ATOMS id type x y z q 
2 2 97.8725 0.088015 -0.000319179 1.18644 
4 1 97.6826 1.57905 0.731568 -0.645313 
9 3 96.8727 2.01089 0.476522 0.346278 
12 1 2.04943 99.5888 1.85831 -0.866524 
13 3 2.6651 99.9799 2.43086 0.367615 
3 1 99.4344 99.6468 0.0363556 -0.864792 
5 1 96.9584 98.9399 0.796518 -0.651816 
7 3 97.4738 98.4331 1.41601 0.34428 
14 1 1.84262 1.56953 99.4471 -0.877557 
15 3 1.44592 2.38893 99.2655 0.372186 
6 1 97.2925 0.180994 98.4352 -0.647307 
1 4 1.36032 99.7884 100.053 2.08527 
10 1 2.20908 98.524 98.8485 -0.86574 
11 3 2.78729 98.5118 98.1233 0.368953 
8 3 96.6371 99.5098 98.26 0.348025 
