ITEM: TIMESTEP
0
ITEM: NUMBER OF ATOMS
15
ITEM: BOX BOUNDS pp pp pp
0.0000000000000000e+00 1.0000000000000000e+02
0.0000000000000000e+00 1.0000000000000000e+02
0.0000000000000000e+00 1.0000000000000000e+02
ITEM: ATOMS id type x y z q 
4 1 97.5854 1.44853 0.73289 -0.645365 
9 3 96.7121 1.84003 0.61988 0.34426 
12 1 2.04402 99.7079 1.78758 -0.882665 
13 3 2.51011 99.6839 2.62313 0.365888 
2 2 97.8184 99.9782 0.01397 1.21463 
3 1 99.425 99.7156 0.01654 -0.842401 
5 1 97.0414 98.7262 0.78231 -0.657711 
7 3 97.5034 98.3368 1.53281 0.331405 
14 1 1.78195 1.7752 99.3889 -0.884076 
15 3 1.91399 2.68442 99.1209 0.374159 
6 1 97.1293 0.05734 98.5118 -0.646267 
1 4 1.37839 99.9863 99.9897 2.10267 
10 1 2.15239 98.6869 98.7804 -0.882873 
11 3 2.65751 98.1489 98.1711 0.3668 
8 3 96.8348 99.216 98.1453 0.341547 
ITEM: TIMESTEP
436
ITEM: NUMBER OF ATOMS
15
ITEM: BOX BOUNDS pp pp pp
0.0000000000000000e+00 1.0000000000000000e+02
0.0000000000000000e+00 1.0000000000000000e+02
0.0000000000000000e+00 1.0000000000000000e+02
ITEM: ATOMS id type x y z q 
4 1 96.8197 1.90585 0.52212 -0.603459 
9 3 96.0659 1.48518 0.930901 0.347949 
12 1 1.52769 99.36 1.81555 -0.854886 
13 3 2.21155 99.5629 2.40789 0.371677 
2 2 97.7666 0.876052 99.6595 0.861033 
3 1 99.3642 1.09229 -0.0166918 -0.668155 
5 1 99.0744 99.1707 99.7841 -0.79531 
7 3 98.2704 98.8088 0.312751 0.400273 
14 1 2.20823 1.19259 99.5089 -0.857598 
15 3 2.2285 2.11693 99.4403 0.374544 
6 1 96.7554 99.1866 99.707 -0.619733 
1 4 0.966971 99.7631 -0.00477505 2.18647 
10 1 1.79245 98.4081 98.855 -0.84239 
11 3 2.60829 98.2193 98.4573 0.376573 
8 3 96.8281 98.8439 98.8374 0.323015 
