ITEM: TIMESTEP
0
ITEM: NUMBER OF ATOMS
15
ITEM: BOX BOUNDS pp pp pp
0.0000000000000000e+00 1.0000000000000000e+02
0.0000000000000000e+00 1.0000000000000000e+02
0.0000000000000000e+00 1.0000000000000000e+02
ITEM: ATOMS id type x y z q 
2 2 97.8274 0.02857 0.01135 1.21366 
4 1 97.6395 1.50563 0.72963 -0.646616 
9 3 96.7792 1.92434 0.61515 0.34421 
12 1 2.04402 99.7079 1.78758 -0.882418 
13 3 2.51011 99.6839 2.62313 0.365989 
3 1 99.425 99.7156 0.01654 -0.842125 
5 1 97.0103 98.8017 0.77868 -0.657188 
7 3 97.4586 98.3982 1.52999 0.33182 
14 1 1.78195 1.7752 99.3889 -0.884051 
15 3 1.91399 2.68442 99.1209 0.374324 
6 1 97.1436 0.12893 98.508 -0.646496 
1 4 1.37839 99.9863 99.9897 2.1029 
10 1 2.15239 98.6869 98.7804 -0.882632 
11 3 2.65751 98.1489 98.1711 0.36687 
8 3 96.8234 99.2971 98.1413 0.34176 
ITEM: TIMESTEP
92
ITEM: NUMBER OF ATOMS
15
ITEM: BOX BOUNDS pp pp pp
0.0000000000000000e+00 1.0000000000000000e+02
0.0000000000000000e+00 1.0000000000000000e+02
0.0000000000000000e+00 1.0000000000000000e+02
ITEM: ATOMS id type x y z q 
2 2 97.857 0.0539087 -0.0144889 1.19055 
4 1 97.6559 1.52743 0.74912 -0.647913 
9 3 96.8154 1.9357 0.565493 0.346747 
12 1 2.0034 99.6083 1.85433 -0.866725 
13 3 2.66366 99.9439 2.41315 0.366581 
3 1 99.4294 99.6498 -0.0140866 -0.862931 
5 1 96.9805 98.8853 0.794042 -0.653207 
7 3 97.4636 98.4751 1.50446 0.34359 
14 1 1.86079 1.57496 99.4254 -0.878614 
15 3 1.48 2.40608 99.2656 0.371732 
6 1 97.2622 0.15733 98.4275 -0.646082 
1 4 1.3541 99.8024 100.035 2.08579 
10 1 2.22301 98.5239 98.86 -0.86621 
11 3 2.79929 98.5036 98.1331 0.368119 
8 3 96.6973 99.4261 98.1944 0.348575 
