ITEM: TIMESTEP
0
ITEM: NUMBER OF ATOMS
15
ITEM: BOX BOUNDS pp pp pp
0.0000000000000000e+00 1.0000000000000000e+02
0.0000000000000000e+00 1.0000000000000000e+02
0.0000000000000000e+00 1.0000000000000000e+02
ITEM: ATOMS id type x y z q 
2 2 97.8689 0.19363 0.0027 1.20972 
4 1 97.8324 1.68293 0.71933 -0.650916 
9 3 97.0212 2.18905 0.60009 0.344096 
12 1 2.04402 99.7079 1.78758 -0.88156 
13 3 2.51011 99.6839 2.62313 0.366374 
3 1 99.425 99.7156 0.01654 -0.840813 
5 1 96.9241 99.0596 0.76617 -0.655382 
7 3 97.3239 98.6121 1.52003 0.333175 
14 1 1.78195 1.7752 99.3889 -0.883809 
15 3 1.91399 2.68442 99.1209 0.374989 
6 1 97.2071 0.36336 98.4957 -0.647204 
1 4 1.37839 99.9863 99.9897 2.10356 
10 1 2.15239 98.6869 98.7804 -0.881841 
11 3 2.65751 98.1489 98.1711 0.367127 
8 3 96.8038 99.5691 98.1276 0.342489 
ITEM: TIMESTEP
128
ITEM: NUMBER OF ATOMS
15
ITEM: BOX BOUNDS pp pp pp
0.0000000000000000e+00 1.0000000000000000e+02
0.0000000000000000e+00 1.0000000000000000e+02
0.0000000000000000e+00 1.0000000000000000e+02
ITEM: ATOMS id type x y z q 
2 2 97.9118 0.232323 -0.0139912 1.18122 
4 1 97.8628 1.74611 0.695973 -0.648261 
9 3 97.0512 2.20965 0.513478 0.346139 
12 1 2.0464 99.5907 1.85907 -0.866107 
13 3 2.66099 99.9842 2.43176 0.367925 
3 1 99.4278 99.6526 0.0377113 -0.862908 
5 1 96.8945 99.1861 0.798358 -0.652254 
7 3 97.3706 98.5993 1.37784 0.344845 
14 1 1.84328 1.56554 99.4449 -0.876896 
15 3 1.45036 2.38861 99.2738 0.374373 
6 1 97.3509 0.350556 98.4161 -0.646022 
1 4 1.35527 99.7873 100.055 2.0859 
10 1 2.20199 98.521 98.8511 -0.865047 
11 3 2.77568 98.5081 98.122 0.369204 
8 3 96.6414 99.737 98.2467 0.347883 
