ITEM: TIMESTEP
0
ITEM: NUMBER OF ATOMS
15
ITEM: BOX BOUNDS pp pp pp
0.0000000000000000e+00 1.0000000000000000e+02
0.0000000000000000e+00 1.0000000000000000e+02
0.0000000000000000e+00 1.0000000000000000e+02
ITEM: ATOMS id type x y z q 
4 1 97.5854 1.44853 0.73289 -0.645365 
9 3 96.7121 1.84003 0.61988 0.34426 
12 1 2.04402 99.7079 1.78758 -0.882665 
13 3 2.51011 99.6839 2.62313 0.365888 
2 2 97.8184 99.9782 0.01397 1.21463 
3 1 99.425 99.7156 0.01654 -0.842401 
5 1 97.0414 98.7262 0.78231 -0.657711 
7 3 97.5034 98.3368 1.53281 0.331405 
14 1 1.78195 1.7752 99.3889 -0.884076 
15 3 1.91399 2.68442 99.1209 0.374159 
6 1 97.1293 0.05734 98.5118 -0.646267 
1 4 1.37839 99.9863 99.9897 2.10267 
10 1 2.15239 98.6869 98.7804 -0.882873 
11 3 2.65751 98.1489 98.1711 0.3668 
8 3 96.8348 99.216 98.1453 0.341547 
ITEM: TIMESTEP
93
ITEM: NUMBER OF ATOMS
15
ITEM: BOX BOUNDS pp pp pp
0.0000000000000000e+00 1.0000000000000000e+02
0.0000000000000000e+00 1.0000000000000000e+02
0.0000000000000000e+00 1.0000000000000000e+02
ITEM: ATOMS id type x y z q 
4 1 97.5886 1.47754 0.748963 -0.643968 
9 3 96.7713 1.88234 0.474829 0.346633 
12 1 2.03281 99.6002 1.86173 -0.866798 
13 3 2.67562 99.9626 2.42403 0.367199 
2 2 97.8542 100.006 0.000364979 1.1884 
3 1 99.4367 99.6465 0.0197318 -0.865431 
5 1 97.0086 98.805 0.794758 -0.651709 
7 3 97.5414 98.3548 1.44269 0.343837 
14 1 1.85085 1.57209 99.4413 -0.878286 
15 3 1.45892 2.39493 99.267 0.37138 
6 1 97.2544 0.0838654 98.4421 -0.647583 
1 4 1.36172 99.7944 100.05 2.08554 
10 1 2.22209 98.5247 98.8597 -0.866456 
11 3 2.78998 98.5105 98.126 0.368687 
8 3 96.641 99.3763 98.264 0.348558 
