ITEM: TIMESTEP
0
ITEM: NUMBER OF ATOMS
15
ITEM: BOX BOUNDS pp pp pp
0.0000000000000000e+00 1.0000000000000000e+02
0.0000000000000000e+00 1.0000000000000000e+02
0.0000000000000000e+00 1.0000000000000000e+02
ITEM: ATOMS id type x y z q 
4 1 98.3862 2.03013 0.69801 -0.662727 
9 3 97.7349 2.72833 0.56795 0.344149 
12 1 2.04402 99.7079 1.78758 -0.879106 
13 3 2.51011 99.6839 2.62313 0.367671 
3 1 99.425 99.7156 0.01654 -0.834815 
5 1 96.8301 99.7309 0.73274 -0.650324 
7 3 97.0909 99.1979 1.49187 0.336344 
14 1 1.78195 1.7752 99.3889 -0.881677 
15 3 1.91399 2.68442 99.1209 0.377411 
2 2 98.0457 0.57955 99.9819 1.19474 
6 1 97.4698 0.90936 98.4662 -0.648721 
8 3 96.8796 0.24512 98.0928 0.344424 
1 4 1.37839 99.9863 99.9897 2.10476 
10 1 2.15239 98.6869 98.7804 -0.880039 
11 3 2.65751 98.1489 98.1711 0.367911 
ITEM: TIMESTEP
232
ITEM: NUMBER OF ATOMS
15
ITEM: BOX BOUNDS pp pp pp
0.0000000000000000e+00 1.0000000000000000e+02
0.0000000000000000e+00 1.0000000000000000e+02
0.0000000000000000e+00 1.0000000000000000e+02
ITEM: ATOMS id type x y z q 
4 1 98.4723 2.17478 0.457996 -0.660261 
9 3 97.7146 2.57156 0.877348 0.346188 
12 1 2.12762 99.599 1.87388 -0.864743 
13 3 2.6479 100.077 2.4754 0.368538 
3 1 99.4418 99.6849 0.156744 -0.853919 
5 1 96.8393 100.03 0.762391 -0.662049 
7 3 97.0614 99.2309 1.23078 0.345344 
14 1 1.80811 1.55924 99.4663 -0.872496 
15 3 1.38624 2.37259 99.3165 0.389085 
2 2 98.1422 0.62989 99.9065 1.16052 
6 1 97.7243 0.661107 98.2878 -0.636145 
8 3 96.8095 0.430998 98.1515 0.347654 
1 4 1.37666 99.7719 100.091 2.08543 
10 1 2.15718 98.5132 98.8376 -0.864234 
11 3 2.59143 98.5033 98.0177 0.371089 
