ITEM: TIMESTEP
0
ITEM: NUMBER OF ATOMS
15
ITEM: BOX BOUNDS pp pp pp
0.0000000000000000e+00 1.0000000000000000e+02
0.0000000000000000e+00 1.0000000000000000e+02
0.0000000000000000e+00 1.0000000000000000e+02
ITEM: ATOMS id type x y z q 
4 1 98.0067 1.81464 0.71149 -0.654661 
9 3 97.2431 2.38936 0.58845 0.344055 
12 1 2.04402 99.7079 1.78758 -0.880796 
13 3 2.51011 99.6839 2.62313 0.366756 
3 1 99.425 99.7156 0.01654 -0.839247 
5 1 96.8732 99.2803 0.75532 -0.65379 
7 3 97.2293 98.8004 1.51112 0.334268 
14 1 1.78195 1.7752 99.3889 -0.883382 
15 3 1.91399 2.68442 99.1209 0.37568 
2 2 97.9165 0.32725 99.9956 1.20557 
6 1 97.2786 0.55278 98.4856 -0.647754 
1 4 1.37839 99.9863 99.9897 2.10401 
10 1 2.15239 98.6869 98.7804 -0.881205 
11 3 2.65751 98.1489 98.1711 0.367368 
8 3 96.8093 99.7964 98.1161 0.343122 
ITEM: TIMESTEP
45
ITEM: NUMBER OF ATOMS
15
ITEM: BOX BOUNDS pp pp pp
0.0000000000000000e+00 1.0000000000000000e+02
0.0000000000000000e+00 1.0000000000000000e+02
0.0000000000000000e+00 1.0000000000000000e+02
ITEM: ATOMS id type x y z q 
4 1 97.9219 2.02242 0.736289 -0.61696 
9 3 97.1431 2.56055 0.738743 0.310431 
12 1 2.0011 99.6232 2.15021 -0.904139 
13 3 2.73072 99.7119 2.72341 0.33499 
3 1 99.6631 99.9815 -0.0774612 -0.663176 
5 1 97.7788 99.2965 -0.111244 -0.465463 
7 3 97.5881 99.1688 0.854965 0.345916 
14 1 1.9034 1.46045 99.332 -0.825318 
15 3 1.81447 2.37516 99.4503 0.351874 
2 2 97.9712 0.899086 99.4901 0.788918 
6 1 96.1326 -0.145791 99.1425 -0.487446 
1 4 1.53416 99.7607 0.272327 2.01744 
10 1 2.0197 98.6249 98.7602 -0.840071 
11 3 2.7487 98.2152 98.3665 0.345979 
8 3 96.2689 99.7957 98.2132 0.307028 
