ITEM: TIMESTEP
0
ITEM: NUMBER OF ATOMS
15
ITEM: BOX BOUNDS pp pp pp
0.0000000000000000e+00 1.0000000000000000e+02
0.0000000000000000e+00 1.0000000000000000e+02
0.0000000000000000e+00 1.0000000000000000e+02
ITEM: ATOMS id type x y z q 
4 1 97.3626 1.16858 0.74859 -0.639875 
9 3 96.4417 1.43179 0.64241 0.344556 
12 1 2.04402 99.7079 1.78758 -0.883728 
13 3 2.51011 99.6839 2.62313 0.365525 
2 2 97.7974 99.7468 0.02586 1.2179 
3 1 99.425 99.7156 0.01654 -0.842932 
5 1 97.2122 98.3965 0.7979 -0.659985 
7 3 97.7304 98.0765 1.5445 0.329472 
14 1 1.78195 1.7752 99.3889 -0.883975 
15 3 1.91399 2.68442 99.1209 0.373606 
1 4 1.37839 99.9863 99.9897 2.10143 
10 1 2.15239 98.6869 98.7804 -0.883976 
11 3 2.65751 98.1489 98.1711 0.366529 
6 1 97.0931 99.7276 98.5287 -0.645167 
8 3 96.9188 98.853 98.1632 0.340623 
ITEM: TIMESTEP
88
ITEM: NUMBER OF ATOMS
15
ITEM: BOX BOUNDS pp pp pp
0.0000000000000000e+00 1.0000000000000000e+02
0.0000000000000000e+00 1.0000000000000000e+02
0.0000000000000000e+00 1.0000000000000000e+02
ITEM: ATOMS id type x y z q 
4 1 97.3438 1.14426 0.814393 -0.642506 
9 3 96.5352 1.50443 0.460973 0.347316 
12 1 2.00068 99.6107 1.86154 -0.868471 
13 3 2.66387 99.935 2.4235 0.366334 
2 2 97.8264 99.7592 0.0125454 1.19425 
3 1 99.4443 99.6559 -0.0264191 -0.865515 
5 1 97.2092 98.412 0.783285 -0.651912 
7 3 97.7314 98.1393 1.5316 0.342516 
14 1 1.88108 1.58391 99.4312 -0.879552 
15 3 1.50032 2.41109 99.2519 0.368448 
1 4 1.36713 99.8128 100.038 2.08565 
10 1 2.2363 98.5339 98.8669 -0.86695 
11 3 2.80112 98.515 98.1302 0.368174 
6 1 97.177 99.7863 98.4722 -0.648329 
8 3 96.7018 98.9863 98.2779 0.350541 
