ITEM: TIMESTEP
0
ITEM: NUMBER OF ATOMS
15
ITEM: BOX BOUNDS pp pp pp
0.0000000000000000e+00 1.0000000000000000e+02
0.0000000000000000e+00 1.0000000000000000e+02
0.0000000000000000e+00 1.0000000000000000e+02
ITEM: ATOMS id type x y z q 
4 1 97.5503 1.40966 0.7351 -0.644543 
9 3 96.669 1.78286 0.62307 0.344296 
12 1 2.04402 99.7079 1.78758 -0.882827 
13 3 2.51011 99.6839 2.62313 0.365825 
2 2 97.8132 99.9446 0.01571 1.21523 
3 1 99.425 99.7156 0.01654 -0.842549 
5 1 97.0634 98.6766 0.78468 -0.658054 
7 3 97.5342 98.2968 1.53463 0.331126 
14 1 1.78195 1.7752 99.3889 -0.884082 
15 3 1.91399 2.68442 99.1209 0.374061 
6 1 97.1211 0.00954 98.5142 -0.646112 
1 4 1.37839 99.9863 99.9897 2.10251 
10 1 2.15239 98.6869 98.7804 -0.883034 
11 3 2.65751 98.1489 98.1711 0.366754 
8 3 96.8438 99.1622 98.148 0.341405 
ITEM: TIMESTEP
433
ITEM: NUMBER OF ATOMS
15
ITEM: BOX BOUNDS pp pp pp
0.0000000000000000e+00 1.0000000000000000e+02
0.0000000000000000e+00 1.0000000000000000e+02
0.0000000000000000e+00 1.0000000000000000e+02
ITEM: ATOMS id type x y z q 
4 1 96.8616 1.78871 0.72532 -0.599428 
9 3 95.9345 1.56993 0.783288 0.337518 
12 1 1.58304 99.3734 1.81602 -0.853349 
13 3 2.28998 99.5853 2.37783 0.37213 
2 2 97.7468 0.823488 99.7361 0.854784 
3 1 99.3514 1.05837 99.9988 -0.660094 
5 1 99.072 99.1415 99.7759 -0.797622 
7 3 98.2752 98.7464 0.289892 0.401426 
14 1 2.1631 1.19253 99.4951 -0.854601 
15 3 2.16256 2.1178 99.4384 0.375066 
6 1 96.7536 99.1076 99.6683 -0.613208 
1 4 0.96355 99.7343 0.0049803 2.18538 
10 1 1.82312 98.3867 98.8824 -0.843991 
11 3 2.63323 98.2301 98.4588 0.376016 
8 3 96.8448 98.8154 98.7826 0.319977 
