ITEM: TIMESTEP
0
ITEM: NUMBER OF ATOMS
15
ITEM: BOX BOUNDS pp pp pp
0.0000000000000000e+00 1.0000000000000000e+02
0.0000000000000000e+00 1.0000000000000000e+02
0.0000000000000000e+00 1.0000000000000000e+02
ITEM: ATOMS id type x y z q 
4 1 97.3626 1.16858 0.74859 -0.639875 
9 3 96.4417 1.43179 0.64241 0.344556 
12 1 2.04402 99.7079 1.78758 -0.883728 
13 3 2.51011 99.6839 2.62313 0.365525 
2 2 97.7974 99.7468 0.02586 1.2179 
3 1 99.425 99.7156 0.01654 -0.842932 
5 1 97.2122 98.3965 0.7979 -0.659985 
7 3 97.7304 98.0765 1.5445 0.329472 
14 1 1.78195 1.7752 99.3889 -0.883975 
15 3 1.91399 2.68442 99.1209 0.373606 
1 4 1.37839 99.9863 99.9897 2.10143 
10 1 2.15239 98.6869 98.7804 -0.883976 
11 3 2.65751 98.1489 98.1711 0.366529 
6 1 97.0931 99.7276 98.5287 -0.645167 
8 3 96.9188 98.853 98.1632 0.340623 
ITEM: TIMESTEP
272
ITEM: NUMBER OF ATOMS
15
ITEM: BOX BOUNDS pp pp pp
0.0000000000000000e+00 1.0000000000000000e+02
0.0000000000000000e+00 1.0000000000000000e+02
0.0000000000000000e+00 1.0000000000000000e+02
ITEM: ATOMS id type x y z q 
4 1 97.384 0.997908 0.911605 -0.657341 
9 3 96.7654 1.55172 0.444025 0.344667 
12 1 2.081 99.6005 1.85354 -0.865595 
13 3 2.66485 100.019 2.44059 0.367369 
2 2 97.8684 99.6667 0.0256294 1.19581 
3 1 99.4892 99.5975 -0.0345887 -0.855969 
5 1 97.2494 98.2939 0.747765 -0.649621 
7 3 97.1922 98.3598 1.69603 0.346363 
14 1 1.82076 1.58703 99.4561 -0.877697 
15 3 1.38645 2.37466 99.2276 0.366289 
1 4 1.41 99.7801 100.041 2.08729 
10 1 2.30811 98.5752 98.812 -0.86505 
11 3 2.7868 98.5965 98.0176 0.36755 
6 1 97.2165 99.7963 98.4927 -0.654186 
8 3 96.7965 98.9931 98.1983 0.350119 
