ITEM: TIMESTEP
0
ITEM: NUMBER OF ATOMS
15
ITEM: BOX BOUNDS pp pp pp
0.0000000000000000e+00 1.0000000000000000e+02
0.0000000000000000e+00 1.0000000000000000e+02
0.0000000000000000e+00 1.0000000000000000e+02
ITEM: ATOMS id type x y z q 
4 1 97.9356 1.76377 0.71454 -0.653141 
9 3 97.1522 2.31155 0.59299 0.344063 
12 1 2.04402 99.7079 1.78758 -0.881107 
13 3 2.51011 99.6839 2.62313 0.366597 
3 1 99.425 99.7156 0.01654 -0.839922 
5 1 96.8912 99.1915 0.7597 -0.65444 
7 3 97.2652 98.7241 1.51474 0.333837 
14 1 1.78195 1.7752 99.3889 -0.883581 
15 3 1.91399 2.68442 99.1209 0.375388 
2 2 97.896 0.2743 99.9984 1.20733 
6 1 97.2481 0.47775 98.4896 -0.647544 
1 4 1.37839 99.9863 99.9897 2.10384 
10 1 2.15239 98.6869 98.7804 -0.881456 
11 3 2.65751 98.1489 98.1711 0.36727 
8 3 96.8048 99.7056 98.1207 0.342868 
