ITEM: TIMESTEP
0
ITEM: NUMBER OF ATOMS
15
ITEM: BOX BOUNDS pp pp pp
0.0000000000000000e+00 1.0000000000000000e+02
0.0000000000000000e+00 1.0000000000000000e+02
0.0000000000000000e+00 1.0000000000000000e+02
ITEM: ATOMS id type x y z q 
4 1 97.269 1.02112 0.75671 -0.6373 
9 3 96.3317 1.21957 0.65393 0.344751 
12 1 2.04402 99.7079 1.78758 -0.884216 
13 3 2.51011 99.6839 2.62313 0.365404 
2 2 97.7992 99.6333 0.03161 1.21881 
3 1 99.425 99.7156 0.01654 -0.842771 
5 1 97.3123 98.2453 0.80491 -0.661041 
7 3 97.8542 97.9619 1.54949 0.328504 
14 1 1.78195 1.7752 99.3889 -0.883821 
15 3 1.91399 2.68442 99.1209 0.37345 
1 4 1.37839 99.9863 99.9897 2.1007 
10 1 2.15239 98.6869 98.7804 -0.884512 
11 3 2.65751 98.1489 98.1711 0.366431 
6 1 97.0927 99.5656 98.537 -0.644582 
8 3 96.9784 98.6811 98.1715 0.340198 
ITEM: TIMESTEP
84
ITEM: NUMBER OF ATOMS
15
ITEM: BOX BOUNDS pp pp pp
0.0000000000000000e+00 1.0000000000000000e+02
0.0000000000000000e+00 1.0000000000000000e+02
0.0000000000000000e+00 1.0000000000000000e+02
ITEM: ATOMS id type x y z q 
4 1 97.1724 0.963141 0.862107 -0.639419 
9 3 96.3354 1.24969 0.508433 0.349749 
12 1 1.96815 99.6077 1.84442 -0.869498 
13 3 2.64479 99.8956 2.40901 0.365858 
2 2 97.8089 99.6676 0.0183593 1.19641 
3 1 99.4262 99.7575 -0.0580649 -0.865602 
5 1 97.3857 98.2428 0.780723 -0.652255 
7 3 97.8968 98.0779 1.56665 0.341088 
14 1 1.95712 1.59253 99.4268 -0.880406 
15 3 1.61896 2.43676 99.247 0.367605 
1 4 1.35342 99.8443 100.017 2.082 
10 1 2.16819 98.523 98.8502 -0.867194 
11 3 2.79344 98.4667 98.1684 0.367926 
6 1 97.1255 99.635 98.493 -0.645998 
8 3 96.8459 98.757 98.249 0.349744 
