ITEM: TIMESTEP
0
ITEM: NUMBER OF ATOMS
15
ITEM: BOX BOUNDS pp pp pp
0.0000000000000000e+00 1.0000000000000000e+02
0.0000000000000000e+00 1.0000000000000000e+02
0.0000000000000000e+00 1.0000000000000000e+02
ITEM: ATOMS id type x y z q 
4 1 98.3862 2.03013 0.69801 -0.662727 
9 3 97.7349 2.72833 0.56795 0.344149 
12 1 2.04402 99.7079 1.78758 -0.879106 
13 3 2.51011 99.6839 2.62313 0.367671 
3 1 99.425 99.7156 0.01654 -0.834815 
5 1 96.8301 99.7309 0.73274 -0.650324 
7 3 97.0909 99.1979 1.49187 0.336344 
14 1 1.78195 1.7752 99.3889 -0.881677 
15 3 1.91399 2.68442 99.1209 0.377411 
2 2 98.0457 0.57955 99.9819 1.19474 
6 1 97.4698 0.90936 98.4662 -0.648721 
8 3 96.8796 0.24512 98.0928 0.344424 
1 4 1.37839 99.9863 99.9897 2.10476 
10 1 2.15239 98.6869 98.7804 -0.880039 
11 3 2.65751 98.1489 98.1711 0.367911 
ITEM: TIMESTEP
184
ITEM: NUMBER OF ATOMS
15
ITEM: BOX BOUNDS pp pp pp
0.0000000000000000e+00 1.0000000000000000e+02
0.0000000000000000e+00 1.0000000000000000e+02
0.0000000000000000e+00 1.0000000000000000e+02
ITEM: ATOMS id type x y z q 
4 1 98.4609 2.11117 0.601052 -0.663038 
9 3 97.6864 2.63912 0.767533 0.34617 
12 1 2.04886 99.6376 1.87485 -0.863147 
13 3 2.64904 100.056 2.44559 0.368867 
3 1 99.4204 99.6678 0.0658638 -0.851813 
5 1 96.8276 99.9339 0.766931 -0.65743 
7 3 97.0816 99.1733 1.28146 0.34664 
14 1 1.87143 1.55264 99.4118 -0.87398 
15 3 1.49611 2.38515 99.2452 0.382879 
2 2 98.1055 0.617322 99.9383 1.164 
6 1 97.6595 0.800409 98.3379 -0.641214 
8 3 96.7961 0.445145 98.1491 0.34731 
1 4 1.35352 99.7992 100.068 2.08562 
10 1 2.1778 98.5093 98.8723 -0.861287 
11 3 2.66582 98.4828 98.0836 0.370416 
