ITEM: TIMESTEP
0
ITEM: NUMBER OF ATOMS
15
ITEM: BOX BOUNDS pp pp pp
0.0000000000000000e+00 1.0000000000000000e+02
0.0000000000000000e+00 1.0000000000000000e+02
0.0000000000000000e+00 1.0000000000000000e+02
ITEM: ATOMS id type x y z q 
4 1 98.1917 1.93066 0.70436 -0.658597 
9 3 97.4816 2.56957 0.57771 0.344071 
12 1 2.04402 99.7079 1.78758 -0.879981 
13 3 2.51011 99.6839 2.62313 0.367189 
3 1 99.425 99.7156 0.01654 -0.837245 
5 1 96.8418 99.5047 0.74414 -0.652105 
7 3 97.1514 98.9961 1.50171 0.335325 
14 1 1.78195 1.7752 99.3889 -0.882695 
15 3 1.91399 2.68442 99.1209 0.376491 
2 2 97.9755 0.45622 99.9887 1.2006 
6 1 97.3664 0.73524 98.4758 -0.648258 
8 3 96.8347 0.0223 98.1044 0.343768 
1 4 1.37839 99.9863 99.9897 2.1044 
10 1 2.15239 98.6869 98.7804 -0.8806 
11 3 2.65751 98.1489 98.1711 0.36763 
ITEM: TIMESTEP
1583
ITEM: NUMBER OF ATOMS
15
ITEM: BOX BOUNDS pp pp pp
0.0000000000000000e+00 1.0000000000000000e+02
0.0000000000000000e+00 1.0000000000000000e+02
0.0000000000000000e+00 1.0000000000000000e+02
ITEM: ATOMS id type x y z q 
4 1 97.7583 2.31645 0.603475 -0.627867 
9 3 96.968 2.10852 1.09763 0.336166 
12 1 1.00603 99.7586 1.78655 -0.868341 
13 3 1.57963 99.6902 2.5121 0.367869 
3 1 99.6785 1.18361 99.0131 -0.787997 
5 1 98.4104 99.4307 0.102584 -0.569793 
7 3 98.3384 99.5357 1.05162 0.335394 
14 1 2.62568 1.2385 99.7051 -0.856994 
15 3 2.831 2.12129 99.5069 0.370538 
2 2 98.1019 1.23886 99.4026 0.881351 
6 1 96.712 99.795 99.4749 -0.506957 
8 3 96.6957 99.4542 98.5956 0.324958 
1 4 1.06712 0.0724564 99.867 2.08571 
10 1 1.60085 98.4962 98.8592 -0.854083 
11 3 2.33296 98.1637 98.3965 0.370046 
