ITEM: TIMESTEP
0
ITEM: NUMBER OF ATOMS
15
ITEM: BOX BOUNDS pp pp pp
0.0000000000000000e+00 1.0000000000000000e+02
0.0000000000000000e+00 1.0000000000000000e+02
0.0000000000000000e+00 1.0000000000000000e+02
ITEM: ATOMS id type x y z q 
4 1 97.5503 1.40966 0.7351 -0.644543 
9 3 96.669 1.78286 0.62307 0.344296 
12 1 2.04402 99.7079 1.78758 -0.882827 
13 3 2.51011 99.6839 2.62313 0.365825 
2 2 97.8132 99.9446 0.01571 1.21523 
3 1 99.425 99.7156 0.01654 -0.842549 
5 1 97.0634 98.6766 0.78468 -0.658054 
7 3 97.5342 98.2968 1.53463 0.331126 
14 1 1.78195 1.7752 99.3889 -0.884082 
15 3 1.91399 2.68442 99.1209 0.374061 
6 1 97.1211 0.00954 98.5142 -0.646112 
1 4 1.37839 99.9863 99.9897 2.10251 
10 1 2.15239 98.6869 98.7804 -0.883034 
11 3 2.65751 98.1489 98.1711 0.366754 
8 3 96.8438 99.1622 98.148 0.341405 
ITEM: TIMESTEP
163
ITEM: NUMBER OF ATOMS
15
ITEM: BOX BOUNDS pp pp pp
0.0000000000000000e+00 1.0000000000000000e+02
0.0000000000000000e+00 1.0000000000000000e+02
0.0000000000000000e+00 1.0000000000000000e+02
ITEM: ATOMS id type x y z q 
4 1 97.5604 1.39734 0.782376 -0.647334 
9 3 96.7589 1.82329 0.493819 0.345872 
12 1 2.05349 99.5871 1.85597 -0.866898 
13 3 2.66221 99.9835 2.43328 0.366863 
2 2 97.8544 99.9478 0.00285904 1.19195 
3 1 99.446 99.6284 0.0245799 -0.86228 
5 1 97.0231 98.7232 0.775611 -0.652277 
7 3 97.4654 98.3984 1.5535 0.34377 
14 1 1.83448 1.57185 99.4458 -0.878175 
15 3 1.42704 2.38169 99.2476 0.370719 
6 1 97.2806 0.0522574 98.4374 -0.649332 
1 4 1.37087 99.7848 100.049 2.0856 
10 1 2.23005 98.5337 98.8377 -0.865813 
11 3 2.7829 98.5312 98.0926 0.368248 
8 3 96.7087 99.327 98.2021 0.34909 
