ITEM: TIMESTEP
0
ITEM: NUMBER OF ATOMS
15
ITEM: BOX BOUNDS pp pp pp
0.0000000000000000e+00 1.0000000000000000e+02
0.0000000000000000e+00 1.0000000000000000e+02
0.0000000000000000e+00 1.0000000000000000e+02
ITEM: ATOMS id type x y z q 
2 2 97.8331 0.05637 0.00991 1.21307 
4 1 97.6704 1.53657 0.72785 -0.64732 
9 3 96.8176 1.97019 0.61256 0.344187 
12 1 2.04402 99.7079 1.78758 -0.88228 
13 3 2.51011 99.6839 2.62313 0.366047 
3 1 99.425 99.7156 0.01654 -0.84195 
5 1 96.994 98.8441 0.77664 -0.656895 
7 3 97.4346 98.4329 1.52839 0.332049 
14 1 1.78195 1.7752 99.3889 -0.884028 
15 3 1.91399 2.68442 99.1209 0.374423 
6 1 97.1524 0.16844 98.506 -0.646616 
1 4 1.37839 99.9863 99.9897 2.10302 
10 1 2.15239 98.6869 98.7804 -0.882498 
11 3 2.65751 98.1489 98.1711 0.36691 
8 3 96.8182 99.3423 98.139 0.341881 
ITEM: TIMESTEP
125
ITEM: NUMBER OF ATOMS
15
ITEM: BOX BOUNDS pp pp pp
0.0000000000000000e+00 1.0000000000000000e+02
0.0000000000000000e+00 1.0000000000000000e+02
0.0000000000000000e+00 1.0000000000000000e+02
ITEM: ATOMS id type x y z q 
2 2 97.8725 0.0757547 -0.0133499 1.18813 
4 1 97.6947 1.55931 0.738913 -0.6478 
9 3 96.8639 1.98218 0.544343 0.345863 
12 1 2.0332 99.5944 1.85912 -0.866909 
13 3 2.66299 99.9697 2.4277 0.366982 
3 1 99.4371 99.64 0.0126678 -0.861883 
5 1 96.9558 98.9325 0.786976 -0.653585 
7 3 97.4228 98.5078 1.49934 0.343778 
14 1 1.84124 1.57058 99.4389 -0.877174 
15 3 1.44295 2.38948 99.2582 0.372492 
6 1 97.3036 0.187912 98.419 -0.646425 
1 4 1.36259 99.7885 100.047 2.08579 
10 1 2.22597 98.5261 98.8517 -0.865964 
11 3 2.78185 98.5166 98.1089 0.36836 
8 3 96.6825 99.4992 98.1989 0.348348 
