ITEM: TIMESTEP
0
ITEM: NUMBER OF ATOMS
15
ITEM: BOX BOUNDS pp pp pp
0.0000000000000000e+00 1.0000000000000000e+02
0.0000000000000000e+00 1.0000000000000000e+02
0.0000000000000000e+00 1.0000000000000000e+02
ITEM: ATOMS id type x y z q 
2 2 97.8274 0.02857 0.01135 1.21366 
4 1 97.6395 1.50563 0.72963 -0.646616 
9 3 96.7792 1.92434 0.61515 0.34421 
12 1 2.04402 99.7079 1.78758 -0.882418 
13 3 2.51011 99.6839 2.62313 0.365989 
3 1 99.425 99.7156 0.01654 -0.842125 
5 1 97.0103 98.8017 0.77868 -0.657188 
7 3 97.4586 98.3982 1.52999 0.33182 
14 1 1.78195 1.7752 99.3889 -0.884051 
15 3 1.91399 2.68442 99.1209 0.374324 
6 1 97.1436 0.12893 98.508 -0.646496 
1 4 1.37839 99.9863 99.9897 2.1029 
10 1 2.15239 98.6869 98.7804 -0.882632 
11 3 2.65751 98.1489 98.1711 0.36687 
8 3 96.8234 99.2971 98.1413 0.34176 
ITEM: TIMESTEP
106
ITEM: NUMBER OF ATOMS
15
ITEM: BOX BOUNDS pp pp pp
0.0000000000000000e+00 1.0000000000000000e+02
0.0000000000000000e+00 1.0000000000000000e+02
0.0000000000000000e+00 1.0000000000000000e+02
ITEM: ATOMS id type x y z q 
2 2 97.8669 0.0579036 0.000850855 1.18644 
4 1 97.6498 1.54356 0.736671 -0.644648 
9 3 96.8426 1.97003 0.465431 0.346291 
12 1 2.05117 99.5895 1.86086 -0.866757 
13 3 2.66956 99.979 2.43223 0.367522 
3 1 99.4369 99.6444 0.0347393 -0.864778 
5 1 96.9749 98.8908 0.795664 -0.651532 
7 3 97.4974 98.4015 1.42345 0.344057 
14 1 1.83906 1.56942 99.4487 -0.877342 
15 3 1.43864 2.38623 99.2652 0.37204 
6 1 97.2827 0.145887 98.4372 -0.647717 
1 4 1.36284 99.7866 100.056 2.08529 
10 1 2.21532 98.5245 98.852 -0.866189 
11 3 2.78452 98.5148 98.1196 0.368966 
8 3 96.6333 99.4697 98.2641 0.348356 
