ITEM: TIMESTEP
0
ITEM: NUMBER OF ATOMS
15
ITEM: BOX BOUNDS pp pp pp
0.0000000000000000e+00 1.0000000000000000e+02
0.0000000000000000e+00 1.0000000000000000e+02
0.0000000000000000e+00 1.0000000000000000e+02
ITEM: ATOMS id type x y z q 
4 1 98.1917 1.93066 0.70436 -0.658597 
9 3 97.4816 2.56957 0.57771 0.344071 
12 1 2.04402 99.7079 1.78758 -0.879981 
13 3 2.51011 99.6839 2.62313 0.367189 
3 1 99.425 99.7156 0.01654 -0.837245 
5 1 96.8418 99.5047 0.74414 -0.652105 
7 3 97.1514 98.9961 1.50171 0.335325 
14 1 1.78195 1.7752 99.3889 -0.882695 
15 3 1.91399 2.68442 99.1209 0.376491 
2 2 97.9755 0.45622 99.9887 1.2006 
6 1 97.3664 0.73524 98.4758 -0.648258 
8 3 96.8347 0.0223 98.1044 0.343768 
1 4 1.37839 99.9863 99.9897 2.1044 
10 1 2.15239 98.6869 98.7804 -0.8806 
11 3 2.65751 98.1489 98.1711 0.36763 
ITEM: TIMESTEP
119
ITEM: NUMBER OF ATOMS
15
ITEM: BOX BOUNDS pp pp pp
0.0000000000000000e+00 1.0000000000000000e+02
0.0000000000000000e+00 1.0000000000000000e+02
0.0000000000000000e+00 1.0000000000000000e+02
ITEM: ATOMS id type x y z q 
4 1 98.2681 2.02082 0.61178 -0.65683 
9 3 97.4764 2.54998 0.605784 0.345922 
12 1 2.03924 99.6003 1.86776 -0.86508 
13 3 2.65777 99.9934 2.43585 0.368645 
3 1 99.4201 99.6619 0.0378379 -0.856607 
5 1 96.8396 99.6908 0.795778 -0.653733 
7 3 97.1948 98.9688 1.30597 0.346021 
14 1 1.84006 1.56081 99.4402 -0.874639 
15 3 1.45094 2.39026 99.2946 0.380595 
2 2 98.0311 0.502384 99.9507 1.16812 
6 1 97.5063 0.659789 98.3706 -0.641699 
8 3 96.6854 0.198622 98.2219 0.347284 
1 4 1.3512 99.7861 100.062 2.08598 
10 1 2.20136 98.5169 98.8636 -0.863824 
11 3 2.74421 98.5033 98.1109 0.36984 
