ITEM: TIMESTEP
0
ITEM: NUMBER OF ATOMS
15
ITEM: BOX BOUNDS pp pp pp
0.0000000000000000e+00 1.0000000000000000e+02
0.0000000000000000e+00 1.0000000000000000e+02
0.0000000000000000e+00 1.0000000000000000e+02
ITEM: ATOMS id type x y z q 
4 1 97.9356 1.76377 0.71454 -0.653141 
9 3 97.1522 2.31155 0.59299 0.344063 
12 1 2.04402 99.7079 1.78758 -0.881107 
13 3 2.51011 99.6839 2.62313 0.366597 
3 1 99.425 99.7156 0.01654 -0.839922 
5 1 96.8912 99.1915 0.7597 -0.65444 
7 3 97.2652 98.7241 1.51474 0.333837 
14 1 1.78195 1.7752 99.3889 -0.883581 
15 3 1.91399 2.68442 99.1209 0.375388 
2 2 97.896 0.2743 99.9984 1.20733 
6 1 97.2481 0.47775 98.4896 -0.647544 
1 4 1.37839 99.9863 99.9897 2.10384 
10 1 2.15239 98.6869 98.7804 -0.881456 
11 3 2.65751 98.1489 98.1711 0.36727 
8 3 96.8048 99.7056 98.1207 0.342868 
ITEM: TIMESTEP
123
ITEM: NUMBER OF ATOMS
15
ITEM: BOX BOUNDS pp pp pp
0.0000000000000000e+00 1.0000000000000000e+02
0.0000000000000000e+00 1.0000000000000000e+02
0.0000000000000000e+00 1.0000000000000000e+02
ITEM: ATOMS id type x y z q 
4 1 97.986 1.81996 0.67638 -0.652706 
9 3 97.1646 2.29582 0.603651 0.345904 
12 1 2.02641 99.5998 1.86189 -0.865486 
13 3 2.65684 99.9767 2.42922 0.367514 
3 1 99.4242 99.6515 0.0180808 -0.859898 
5 1 96.8625 99.3353 0.792557 -0.654996 
7 3 97.2852 98.7601 1.42285 0.344568 
14 1 1.84272 1.56547 99.4344 -0.876147 
15 3 1.452 2.3911 99.2672 0.375998 
2 2 97.9387 0.307027 99.9665 1.18147 
6 1 97.4034 0.453607 98.3896 -0.644089 
1 4 1.35182 99.7899 100.051 2.0862 
10 1 2.21267 98.5214 98.8591 -0.864768 
11 3 2.76427 98.5084 98.1125 0.36875 
8 3 96.6852 99.8616 98.1845 0.347677 
