ITEM: TIMESTEP
0
ITEM: NUMBER OF ATOMS
15
ITEM: BOX BOUNDS pp pp pp
0.0000000000000000e+00 1.0000000000000000e+02
0.0000000000000000e+00 1.0000000000000000e+02
0.0000000000000000e+00 1.0000000000000000e+02
ITEM: ATOMS id type x y z q 
2 2 97.8531 0.1391 0.00557 1.21115 
4 1 97.7661 1.62609 0.72266 -0.649458 
9 3 96.9375 2.10364 0.60498 0.344127 
12 1 2.04402 99.7079 1.78758 -0.881853 
13 3 2.51011 99.6839 2.62313 0.366237 
3 1 99.425 99.7156 0.01654 -0.84132 
5 1 96.9498 98.9726 0.77041 -0.655997 
7 3 97.3663 98.5393 1.52345 0.332728 
14 1 1.78195 1.7752 99.3889 -0.883919 
15 3 1.91399 2.68442 99.1209 0.374748 
6 1 97.1832 0.28597 98.4998 -0.646978 
1 4 1.37839 99.9863 99.9897 2.10335 
10 1 2.15239 98.6869 98.7804 -0.882102 
11 3 2.65751 98.1489 98.1711 0.367038 
8 3 96.8072 99.4783 98.1322 0.342245 
ITEM: TIMESTEP
641
ITEM: NUMBER OF ATOMS
15
ITEM: BOX BOUNDS pp pp pp
0.0000000000000000e+00 1.0000000000000000e+02
0.0000000000000000e+00 1.0000000000000000e+02
0.0000000000000000e+00 1.0000000000000000e+02
ITEM: ATOMS id type x y z q 
2 2 97.4899 0.84315 99.559 0.870405 
4 1 97.0558 1.86756 0.780544 -0.610122 
9 3 96.1181 2.03449 0.83391 0.340441 
12 1 1.62537 99.3961 1.87863 -0.865924 
13 3 2.28758 99.5583 2.50913 0.366398 
3 1 99.5324 0.820425 99.6377 -0.629934 
5 1 98.7612 99.2798 99.8291 -0.591802 
7 3 98.5691 99.1574 0.766504 0.303408 
14 1 2.39818 1.29864 99.6041 -0.854095 
15 3 2.34299 2.2069 99.4227 0.369308 
6 1 96.2381 99.7504 99.2658 -0.621584 
1 4 1.21986 99.7958 0.0186566 2.0688 
10 1 1.90921 98.3619 98.8981 -0.856839 
11 3 2.66327 98.1513 98.3999 0.368535 
8 3 96.5155 99.0121 98.7335 0.343 
