ITEM: TIMESTEP
0
ITEM: NUMBER OF ATOMS
15
ITEM: BOX BOUNDS pp pp pp
0.0000000000000000e+00 1.0000000000000000e+02
0.0000000000000000e+00 1.0000000000000000e+02
0.0000000000000000e+00 1.0000000000000000e+02
ITEM: ATOMS id type x y z q 
4 1 98.3862 2.03013 0.69801 -0.662727 
9 3 97.7349 2.72833 0.56795 0.344149 
12 1 2.04402 99.7079 1.78758 -0.879106 
13 3 2.51011 99.6839 2.62313 0.367671 
3 1 99.425 99.7156 0.01654 -0.834815 
5 1 96.8301 99.7309 0.73274 -0.650324 
7 3 97.0909 99.1979 1.49187 0.336344 
14 1 1.78195 1.7752 99.3889 -0.881677 
15 3 1.91399 2.68442 99.1209 0.377411 
2 2 98.0457 0.57955 99.9819 1.19474 
6 1 97.4698 0.90936 98.4662 -0.648721 
8 3 96.8796 0.24512 98.0928 0.344424 
1 4 1.37839 99.9863 99.9897 2.10476 
10 1 2.15239 98.6869 98.7804 -0.880039 
11 3 2.65751 98.1489 98.1711 0.367911 
ITEM: TIMESTEP
797
ITEM: NUMBER OF ATOMS
15
ITEM: BOX BOUNDS pp pp pp
0.0000000000000000e+00 1.0000000000000000e+02
0.0000000000000000e+00 1.0000000000000000e+02
0.0000000000000000e+00 1.0000000000000000e+02
ITEM: ATOMS id type x y z q 
4 1 97.9891 2.49137 0.512057 -0.633867 
9 3 97.1409 2.46779 0.949701 0.334137 
12 1 1.04636 99.724 1.76005 -0.866059 
13 3 1.61222 99.5703 2.47871 0.367571 
3 1 99.7418 1.11066 98.9213 -0.795818 
5 1 98.2897 99.5473 0.213562 -0.554849 
7 3 98.1948 99.7259 1.14788 0.338792 
14 1 2.64944 1.29666 99.7266 -0.856722 
15 3 2.82498 2.19012 99.5486 0.371743 
2 2 98.1983 1.3088 99.3806 0.88488 
6 1 96.6651 0.0253687 99.4818 -0.509003 
8 3 96.6512 99.6241 98.6281 0.326427 
1 4 1.13196 0.0742201 99.8483 2.08077 
10 1 1.70832 98.4921 98.8755 -0.856908 
11 3 2.45654 98.1618 98.437 0.368906 
