ITEM: TIMESTEP
0
ITEM: NUMBER OF ATOMS
15
ITEM: BOX BOUNDS pp pp pp
0.0000000000000000e+00 1.0000000000000000e+02
0.0000000000000000e+00 1.0000000000000000e+02
0.0000000000000000e+00 1.0000000000000000e+02
ITEM: ATOMS id type x y z q 
4 1 98.0067 1.81464 0.71149 -0.654661 
9 3 97.2431 2.38936 0.58845 0.344055 
12 1 2.04402 99.7079 1.78758 -0.880796 
13 3 2.51011 99.6839 2.62313 0.366756 
3 1 99.425 99.7156 0.01654 -0.839247 
5 1 96.8732 99.2803 0.75532 -0.65379 
7 3 97.2293 98.8004 1.51112 0.334268 
14 1 1.78195 1.7752 99.3889 -0.883382 
15 3 1.91399 2.68442 99.1209 0.37568 
2 2 97.9165 0.32725 99.9956 1.20557 
6 1 97.2786 0.55278 98.4856 -0.647754 
1 4 1.37839 99.9863 99.9897 2.10401 
10 1 2.15239 98.6869 98.7804 -0.881205 
11 3 2.65751 98.1489 98.1711 0.367368 
8 3 96.8093 99.7964 98.1161 0.343122 
ITEM: TIMESTEP
172
ITEM: NUMBER OF ATOMS
15
ITEM: BOX BOUNDS pp pp pp
0.0000000000000000e+00 1.0000000000000000e+02
0.0000000000000000e+00 1.0000000000000000e+02
0.0000000000000000e+00 1.0000000000000000e+02
ITEM: ATOMS id type x y z q 
4 1 98.0703 1.9102 0.625992 -0.651844 
9 3 97.2403 2.37474 0.584998 0.345657 
12 1 2.08484 99.5781 1.86157 -0.865975 
13 3 2.63058 100.029 2.46104 0.368531 
3 1 99.4362 99.6563 0.0781605 -0.860651 
5 1 96.8531 99.4649 0.798179 -0.655273 
7 3 97.259 98.7774 1.31774 0.345047 
14 1 1.82726 1.55706 99.4577 -0.875135 
15 3 1.41922 2.37236 99.2833 0.378538 
2 2 97.9836 0.374134 99.9702 1.17553 
6 1 97.4685 0.478704 98.3833 -0.643157 
1 4 1.36628 99.7717 100.068 2.08689 
10 1 2.1876 98.5163 98.8368 -0.864768 
11 3 2.72234 98.5113 98.0785 0.369797 
8 3 96.6709 99.9779 98.2359 0.346816 
