ITEM: TIMESTEP
0
ITEM: NUMBER OF ATOMS
15
ITEM: BOX BOUNDS pp pp pp
0.0000000000000000e+00 1.0000000000000000e+02
0.0000000000000000e+00 1.0000000000000000e+02
0.0000000000000000e+00 1.0000000000000000e+02
ITEM: ATOMS id type x y z q 
4 1 97.4663 1.30916 0.74076 -0.642515 
9 3 96.5664 1.63581 0.63122 0.344397 
12 1 2.04402 99.7079 1.78758 -0.883221 
13 3 2.51011 99.6839 2.62313 0.365683 
2 2 97.8035 99.8601 0.02007 1.21654 
3 1 99.425 99.7156 0.01654 -0.842819 
5 1 97.123 98.5543 0.79049 -0.658896 
7 3 97.615 98.1995 1.53903 0.330423 
14 1 1.78195 1.7752 99.3889 -0.884065 
15 3 1.91399 2.68442 99.1209 0.373836 
1 4 1.37839 99.9863 99.9897 2.10208 
10 1 2.15239 98.6869 98.7804 -0.883438 
11 3 2.65751 98.1489 98.1711 0.366651 
6 1 97.1048 99.8891 98.5205 -0.645717 
8 3 96.8713 99.0286 98.1546 0.341063 
ITEM: TIMESTEP
143
ITEM: NUMBER OF ATOMS
15
ITEM: BOX BOUNDS pp pp pp
0.0000000000000000e+00 1.0000000000000000e+02
0.0000000000000000e+00 1.0000000000000000e+02
0.0000000000000000e+00 1.0000000000000000e+02
ITEM: ATOMS id type x y z q 
4 1 97.4534 1.30189 0.792894 -0.642054 
9 3 96.7053 1.73415 0.391531 0.346707 
12 1 2.07047 99.5819 1.85745 -0.867187 
13 3 2.66441 99.9933 2.44018 0.367119 
2 2 97.8412 99.8668 0.026561 1.19057 
3 1 99.4465 99.6308 0.0522337 -0.866047 
5 1 97.0825 98.5869 0.785014 -0.649935 
7 3 97.6046 98.219 1.49094 0.343788 
14 1 1.83103 1.57466 99.4567 -0.878339 
15 3 1.42033 2.38008 99.2481 0.369446 
1 4 1.37122 99.7857 100.057 2.08483 
10 1 2.21545 98.5362 98.8352 -0.866263 
11 3 2.78556 98.533 98.1028 0.368749 
6 1 97.2498 99.9376 98.4646 -0.650902 
8 3 96.6719 99.2038 98.2736 0.34952 
