ITEM: TIMESTEP
0
ITEM: NUMBER OF ATOMS
15
ITEM: BOX BOUNDS pp pp pp
0.0000000000000000e+00 1.0000000000000000e+02
0.0000000000000000e+00 1.0000000000000000e+02
0.0000000000000000e+00 1.0000000000000000e+02
ITEM: ATOMS id type x y z q 
4 1 97.269 1.02112 0.75671 -0.6373 
9 3 96.3317 1.21957 0.65393 0.344751 
12 1 2.04402 99.7079 1.78758 -0.884216 
13 3 2.51011 99.6839 2.62313 0.365404 
2 2 97.7992 99.6333 0.03161 1.21881 
3 1 99.425 99.7156 0.01654 -0.842771 
5 1 97.3123 98.2453 0.80491 -0.661041 
7 3 97.8542 97.9619 1.54949 0.328504 
14 1 1.78195 1.7752 99.3889 -0.883821 
15 3 1.91399 2.68442 99.1209 0.37345 
1 4 1.37839 99.9863 99.9897 2.1007 
10 1 2.15239 98.6869 98.7804 -0.884512 
11 3 2.65751 98.1489 98.1711 0.366431 
6 1 97.0927 99.5656 98.537 -0.644582 
8 3 96.9784 98.6811 98.1715 0.340198 
ITEM: TIMESTEP
138
ITEM: NUMBER OF ATOMS
15
ITEM: BOX BOUNDS pp pp pp
0.0000000000000000e+00 1.0000000000000000e+02
0.0000000000000000e+00 1.0000000000000000e+02
0.0000000000000000e+00 1.0000000000000000e+02
ITEM: ATOMS id type x y z q 
4 1 97.1641 0.847685 0.900968 -0.647143 
9 3 96.5246 1.33448 0.388736 0.346983 
12 1 2.0169 99.5914 1.85633 -0.867526 
13 3 2.64375 99.944 2.44203 0.366189 
2 2 97.8466 99.6032 0.0203851 1.19592 
3 1 99.4608 99.7518 -0.0336886 -0.860397 
5 1 97.4498 98.145 0.731693 -0.651827 
7 3 97.6319 98.1282 1.66594 0.344937 
14 1 1.92716 1.60019 99.4506 -0.878889 
15 3 1.54996 2.41341 99.2093 0.365679 
1 4 1.38848 99.8272 100.035 2.0848 
10 1 2.22615 98.5511 98.8343 -0.865137 
11 3 2.78847 98.5317 98.0959 0.367485 
6 1 97.1595 99.6344 98.497 -0.65175 
8 3 96.7226 98.8132 98.2888 0.350678 
