ITEM: TIMESTEP
0
ITEM: NUMBER OF ATOMS
15
ITEM: BOX BOUNDS pp pp pp
0.0000000000000000e+00 1.0000000000000000e+02
0.0000000000000000e+00 1.0000000000000000e+02
0.0000000000000000e+00 1.0000000000000000e+02
ITEM: ATOMS id type x y z q 
4 1 98.1917 1.93066 0.70436 -0.658597 
9 3 97.4816 2.56957 0.57771 0.344071 
12 1 2.04402 99.7079 1.78758 -0.879981 
13 3 2.51011 99.6839 2.62313 0.367189 
3 1 99.425 99.7156 0.01654 -0.837245 
5 1 96.8418 99.5047 0.74414 -0.652105 
7 3 97.1514 98.9961 1.50171 0.335325 
14 1 1.78195 1.7752 99.3889 -0.882695 
15 3 1.91399 2.68442 99.1209 0.376491 
2 2 97.9755 0.45622 99.9887 1.2006 
6 1 97.3664 0.73524 98.4758 -0.648258 
8 3 96.8347 0.0223 98.1044 0.343768 
1 4 1.37839 99.9863 99.9897 2.1044 
10 1 2.15239 98.6869 98.7804 -0.8806 
11 3 2.65751 98.1489 98.1711 0.36763 
ITEM: TIMESTEP
347
ITEM: NUMBER OF ATOMS
15
ITEM: BOX BOUNDS pp pp pp
0.0000000000000000e+00 1.0000000000000000e+02
0.0000000000000000e+00 1.0000000000000000e+02
0.0000000000000000e+00 1.0000000000000000e+02
ITEM: ATOMS id type x y z q 
4 1 98.2193 2.04684 0.581239 -0.654493 
9 3 97.3908 2.42033 0.866129 0.345679 
12 1 2.15408 99.629 1.87141 -0.864273 
13 3 2.65975 100.122 2.47266 0.36866 
3 1 99.4497 99.6899 0.189776 -0.856675 
5 1 96.8062 99.7306 0.735876 -0.66239 
7 3 97.0922 98.9781 1.24514 0.345325 
14 1 1.84983 1.54879 99.4276 -0.874198 
15 3 1.44483 2.3565 99.2153 0.382063 
2 2 98.0624 0.50383 99.9551 1.17116 
6 1 97.7028 0.578822 98.3245 -0.641739 
8 3 96.8324 0.250405 98.1186 0.3465 
1 4 1.38019 99.7866 100.097 2.08699 
10 1 2.11815 98.4954 98.849 -0.863102 
11 3 2.54404 98.4664 98.0254 0.370498 
