ITEM: TIMESTEP
0
ITEM: NUMBER OF ATOMS
15
ITEM: BOX BOUNDS pp pp pp
0.0000000000000000e+00 1.0000000000000000e+02
0.0000000000000000e+00 1.0000000000000000e+02
0.0000000000000000e+00 1.0000000000000000e+02
ITEM: ATOMS id type x y z q 
4 1 98.1917 1.93066 0.70436 -0.658597 
9 3 97.4816 2.56957 0.57771 0.344071 
12 1 2.04402 99.7079 1.78758 -0.879981 
13 3 2.51011 99.6839 2.62313 0.367189 
3 1 99.425 99.7156 0.01654 -0.837245 
5 1 96.8418 99.5047 0.74414 -0.652105 
7 3 97.1514 98.9961 1.50171 0.335325 
14 1 1.78195 1.7752 99.3889 -0.882695 
15 3 1.91399 2.68442 99.1209 0.376491 
2 2 97.9755 0.45622 99.9887 1.2006 
6 1 97.3664 0.73524 98.4758 -0.648258 
8 3 96.8347 0.0223 98.1044 0.343768 
1 4 1.37839 99.9863 99.9897 2.1044 
10 1 2.15239 98.6869 98.7804 -0.8806 
11 3 2.65751 98.1489 98.1711 0.36763 
ITEM: TIMESTEP
151
ITEM: NUMBER OF ATOMS
15
ITEM: BOX BOUNDS pp pp pp
0.0000000000000000e+00 1.0000000000000000e+02
0.0000000000000000e+00 1.0000000000000000e+02
0.0000000000000000e+00 1.0000000000000000e+02
ITEM: ATOMS id type x y z q 
4 1 98.2737 2.03006 0.591021 -0.656846 
9 3 97.469 2.53674 0.633275 0.345911 
12 1 2.05733 99.5939 1.86816 -0.864573 
13 3 2.64892 100.012 2.448 0.368549 
3 1 99.4257 99.6615 0.0557927 -0.857201 
5 1 96.8406 99.7086 0.79521 -0.655669 
7 3 97.1853 98.973 1.2928 0.345863 
14 1 1.83337 1.55819 99.4478 -0.874294 
15 3 1.43618 2.38333 99.2957 0.381394 
2 2 98.04 0.503525 99.9475 1.1689 
6 1 97.5262 0.638246 98.362 -0.641092 
8 3 96.6891 0.204639 98.222 0.347029 
1 4 1.3571 99.7793 100.066 2.08631 
10 1 2.19759 98.5155 98.856 -0.864336 
11 3 2.72635 98.5054 98.0938 0.370048 
