ITEM: TIMESTEP
0
ITEM: NUMBER OF ATOMS
15
ITEM: BOX BOUNDS pp pp pp
0.0000000000000000e+00 1.0000000000000000e+02
0.0000000000000000e+00 1.0000000000000000e+02
0.0000000000000000e+00 1.0000000000000000e+02
ITEM: ATOMS id type x y z q 
2 2 97.8274 0.02857 0.01135 1.21366 
4 1 97.6395 1.50563 0.72963 -0.646616 
9 3 96.7792 1.92434 0.61515 0.34421 
12 1 2.04402 99.7079 1.78758 -0.882418 
13 3 2.51011 99.6839 2.62313 0.365989 
3 1 99.425 99.7156 0.01654 -0.842125 
5 1 97.0103 98.8017 0.77868 -0.657188 
7 3 97.4586 98.3982 1.52999 0.33182 
14 1 1.78195 1.7752 99.3889 -0.884051 
15 3 1.91399 2.68442 99.1209 0.374324 
6 1 97.1436 0.12893 98.508 -0.646496 
1 4 1.37839 99.9863 99.9897 2.1029 
10 1 2.15239 98.6869 98.7804 -0.882632 
11 3 2.65751 98.1489 98.1711 0.36687 
8 3 96.8234 99.2971 98.1413 0.34176 
ITEM: TIMESTEP
107
ITEM: NUMBER OF ATOMS
15
ITEM: BOX BOUNDS pp pp pp
0.0000000000000000e+00 1.0000000000000000e+02
0.0000000000000000e+00 1.0000000000000000e+02
0.0000000000000000e+00 1.0000000000000000e+02
ITEM: ATOMS id type x y z q 
2 2 97.8655 0.0575369 0.000509452 1.18716 
4 1 97.6482 1.54419 0.736284 -0.644575 
9 3 96.8374 1.96877 0.472456 0.346339 
12 1 2.04773 99.5914 1.86075 -0.866334 
13 3 2.67152 99.9758 2.4301 0.367237 
3 1 99.4355 99.6455 0.0336003 -0.864578 
5 1 96.9746 98.8911 0.795273 -0.652108 
7 3 97.4959 98.4029 1.42468 0.344094 
14 1 1.8425 1.57047 99.4459 -0.877113 
15 3 1.44576 2.38996 99.2655 0.371916 
6 1 97.2809 0.145268 98.4373 -0.647589 
1 4 1.36188 99.7885 100.054 2.08428 
10 1 2.21496 98.5243 98.8519 -0.86582 
11 3 2.78794 98.5121 98.1221 0.368797 
8 3 96.6352 99.466 98.2621 0.348298 
