ITEM: TIMESTEP
0
ITEM: NUMBER OF ATOMS
15
ITEM: BOX BOUNDS pp pp pp
0.0000000000000000e+00 1.0000000000000000e+02
0.0000000000000000e+00 1.0000000000000000e+02
0.0000000000000000e+00 1.0000000000000000e+02
ITEM: ATOMS id type x y z q 
4 1 97.5854 1.44853 0.73289 -0.645365 
9 3 96.7121 1.84003 0.61988 0.34426 
12 1 2.04402 99.7079 1.78758 -0.882665 
13 3 2.51011 99.6839 2.62313 0.365888 
2 2 97.8184 99.9782 0.01397 1.21463 
3 1 99.425 99.7156 0.01654 -0.842401 
5 1 97.0414 98.7262 0.78231 -0.657711 
7 3 97.5034 98.3368 1.53281 0.331405 
14 1 1.78195 1.7752 99.3889 -0.884076 
15 3 1.91399 2.68442 99.1209 0.374159 
6 1 97.1293 0.05734 98.5118 -0.646267 
1 4 1.37839 99.9863 99.9897 2.10267 
10 1 2.15239 98.6869 98.7804 -0.882873 
11 3 2.65751 98.1489 98.1711 0.3668 
8 3 96.8348 99.216 98.1453 0.341547 
ITEM: TIMESTEP
185
ITEM: NUMBER OF ATOMS
15
ITEM: BOX BOUNDS pp pp pp
0.0000000000000000e+00 1.0000000000000000e+02
0.0000000000000000e+00 1.0000000000000000e+02
0.0000000000000000e+00 1.0000000000000000e+02
ITEM: ATOMS id type x y z q 
4 1 97.5927 1.43241 0.786364 -0.648051 
9 3 96.82 1.88886 0.467544 0.345542 
12 1 2.08087 99.5775 1.85244 -0.86679 
13 3 2.64958 100.011 2.44393 0.367313 
2 2 97.8658 99.9766 0.011982 1.19084 
3 1 99.4498 99.6225 0.0555089 -0.862024 
5 1 96.9942 98.77 0.767232 -0.651766 
7 3 97.4127 98.438 1.55503 0.34422 
14 1 1.81935 1.56807 99.4572 -0.877732 
15 3 1.40126 2.36871 99.2446 0.370963 
6 1 97.3215 0.0968741 98.4362 -0.65046 
1 4 1.37479 99.7741 100.054 2.08619 
10 1 2.21636 98.5351 98.8191 -0.865836 
11 3 2.76359 98.54 98.0697 0.368356 
8 3 96.7256 99.3927 98.1962 0.349235 
