ITEM: TIMESTEP
0
ITEM: NUMBER OF ATOMS
15
ITEM: BOX BOUNDS pp pp pp
0.0000000000000000e+00 1.0000000000000000e+02
0.0000000000000000e+00 1.0000000000000000e+02
0.0000000000000000e+00 1.0000000000000000e+02
ITEM: ATOMS id type x y z q 
4 1 98.0067 1.81464 0.71149 -0.654661 
9 3 97.2431 2.38936 0.58845 0.344055 
12 1 2.04402 99.7079 1.78758 -0.880796 
13 3 2.51011 99.6839 2.62313 0.366756 
3 1 99.425 99.7156 0.01654 -0.839247 
5 1 96.8732 99.2803 0.75532 -0.65379 
7 3 97.2293 98.8004 1.51112 0.334268 
14 1 1.78195 1.7752 99.3889 -0.883382 
15 3 1.91399 2.68442 99.1209 0.37568 
2 2 97.9165 0.32725 99.9956 1.20557 
6 1 97.2786 0.55278 98.4856 -0.647754 
1 4 1.37839 99.9863 99.9897 2.10401 
10 1 2.15239 98.6869 98.7804 -0.881205 
11 3 2.65751 98.1489 98.1711 0.367368 
8 3 96.8093 99.7964 98.1161 0.343122 
ITEM: TIMESTEP
128
ITEM: NUMBER OF ATOMS
15
ITEM: BOX BOUNDS pp pp pp
0.0000000000000000e+00 1.0000000000000000e+02
0.0000000000000000e+00 1.0000000000000000e+02
0.0000000000000000e+00 1.0000000000000000e+02
ITEM: ATOMS id type x y z q 
4 1 98.0629 1.87632 0.663157 -0.654122 
9 3 97.2485 2.3673 0.617391 0.345873 
12 1 2.02703 99.602 1.86301 -0.865209 
13 3 2.6552 99.9818 2.43075 0.367724 
3 1 99.4219 99.6537 0.0222835 -0.858972 
5 1 96.8487 99.4351 0.79151 -0.655018 
7 3 97.2498 98.8266 1.40531 0.344839 
14 1 1.84434 1.56415 99.4333 -0.876147 
15 3 1.45563 2.39054 99.2677 0.377083 
2 2 97.9611 0.361834 99.9614 1.17964 
6 1 97.4356 0.517044 98.3832 -0.644199 
1 4 1.3504 99.7907 100.052 2.08626 
10 1 2.2085 98.5213 98.8596 -0.864433 
11 3 2.75686 98.5074 98.1109 0.369005 
8 3 96.6936 99.9546 98.1803 0.347674 
