ITEM: TIMESTEP
0
ITEM: NUMBER OF ATOMS
15
ITEM: BOX BOUNDS pp pp pp
0.0000000000000000e+00 1.0000000000000000e+02
0.0000000000000000e+00 1.0000000000000000e+02
0.0000000000000000e+00 1.0000000000000000e+02
ITEM: ATOMS id type x y z q 
2 2 97.8689 0.19363 0.0027 1.20972 
4 1 97.8324 1.68293 0.71933 -0.650916 
9 3 97.0212 2.18905 0.60009 0.344096 
12 1 2.04402 99.7079 1.78758 -0.88156 
13 3 2.51011 99.6839 2.62313 0.366374 
3 1 99.425 99.7156 0.01654 -0.840813 
5 1 96.9241 99.0596 0.76617 -0.655382 
7 3 97.3239 98.6121 1.52003 0.333175 
14 1 1.78195 1.7752 99.3889 -0.883809 
15 3 1.91399 2.68442 99.1209 0.374989 
6 1 97.2071 0.36336 98.4957 -0.647204 
1 4 1.37839 99.9863 99.9897 2.10356 
10 1 2.15239 98.6869 98.7804 -0.881841 
11 3 2.65751 98.1489 98.1711 0.367127 
8 3 96.8038 99.5691 98.1276 0.342489 
ITEM: TIMESTEP
141
ITEM: NUMBER OF ATOMS
15
ITEM: BOX BOUNDS pp pp pp
0.0000000000000000e+00 1.0000000000000000e+02
0.0000000000000000e+00 1.0000000000000000e+02
0.0000000000000000e+00 1.0000000000000000e+02
ITEM: ATOMS id type x y z q 
2 2 97.9132 0.222355 -0.0234302 1.18455 
4 1 97.8723 1.73069 0.697426 -0.650478 
9 3 97.0433 2.18322 0.577455 0.345755 
12 1 2.04078 99.5917 1.85966 -0.866065 
13 3 2.65489 99.9846 2.43368 0.367447 
3 1 99.4304 99.6458 0.029324 -0.86098 
5 1 96.8871 99.1869 0.790376 -0.654536 
7 3 97.3299 98.6584 1.44701 0.344337 
14 1 1.83889 1.56549 99.4407 -0.876838 
15 3 1.44184 2.38498 99.2613 0.374795 
6 1 97.3741 0.351888 98.4002 -0.645601 
1 4 1.35776 99.7858 100.052 2.08612 
10 1 2.21168 98.5234 98.8492 -0.865149 
11 3 2.76513 98.514 98.1045 0.36871 
8 3 96.6835 99.7299 98.1903 0.347925 
