ITEM: TIMESTEP
0
ITEM: NUMBER OF ATOMS
15
ITEM: BOX BOUNDS pp pp pp
0.0000000000000000e+00 1.0000000000000000e+02
0.0000000000000000e+00 1.0000000000000000e+02
0.0000000000000000e+00 1.0000000000000000e+02
ITEM: ATOMS id type x y z q 
4 1 97.269 1.02112 0.75671 -0.6373 
9 3 96.3317 1.21957 0.65393 0.344751 
12 1 2.04402 99.7079 1.78758 -0.884216 
13 3 2.51011 99.6839 2.62313 0.365404 
2 2 97.7992 99.6333 0.03161 1.21881 
3 1 99.425 99.7156 0.01654 -0.842771 
5 1 97.3123 98.2453 0.80491 -0.661041 
7 3 97.8542 97.9619 1.54949 0.328504 
14 1 1.78195 1.7752 99.3889 -0.883821 
15 3 1.91399 2.68442 99.1209 0.37345 
1 4 1.37839 99.9863 99.9897 2.1007 
10 1 2.15239 98.6869 98.7804 -0.884512 
11 3 2.65751 98.1489 98.1711 0.366431 
6 1 97.0927 99.5656 98.537 -0.644582 
8 3 96.9784 98.6811 98.1715 0.340198 
ITEM: TIMESTEP
108
ITEM: NUMBER OF ATOMS
15
ITEM: BOX BOUNDS pp pp pp
0.0000000000000000e+00 1.0000000000000000e+02
0.0000000000000000e+00 1.0000000000000000e+02
0.0000000000000000e+00 1.0000000000000000e+02
ITEM: ATOMS id type x y z q 
4 1 97.158 0.947598 0.858114 -0.640019 
9 3 96.3842 1.29071 0.420276 0.348225 
12 1 2.06912 99.5707 1.82804 -0.868986 
13 3 2.67118 99.9606 2.41691 0.366078 
2 2 97.8225 99.6491 0.0411216 1.19607 
3 1 99.4427 99.7282 0.0384257 -0.865227 
5 1 97.3508 98.2198 0.764919 -0.652386 
7 3 97.7967 98.0557 1.58967 0.342403 
14 1 1.91741 1.59244 99.4554 -0.880147 
15 3 1.5455 2.41096 99.2268 0.367209 
1 4 1.37018 99.8217 100.034 2.08459 
10 1 2.14995 98.5371 98.8059 -0.866238 
11 3 2.8024 98.4878 98.1484 0.36791 
6 1 97.2021 99.6442 98.489 -0.649838 
8 3 96.8181 98.8006 98.2661 0.350357 
