ITEM: TIMESTEP
0
ITEM: NUMBER OF ATOMS
15
ITEM: BOX BOUNDS pp pp pp
0.0000000000000000e+00 1.0000000000000000e+02
0.0000000000000000e+00 1.0000000000000000e+02
0.0000000000000000e+00 1.0000000000000000e+02
ITEM: ATOMS id type x y z q 
4 1 98.0067 1.81464 0.71149 -0.654661 
9 3 97.2431 2.38936 0.58845 0.344055 
12 1 2.04402 99.7079 1.78758 -0.880796 
13 3 2.51011 99.6839 2.62313 0.366756 
3 1 99.425 99.7156 0.01654 -0.839247 
5 1 96.8732 99.2803 0.75532 -0.65379 
7 3 97.2293 98.8004 1.51112 0.334268 
14 1 1.78195 1.7752 99.3889 -0.883382 
15 3 1.91399 2.68442 99.1209 0.37568 
2 2 97.9165 0.32725 99.9956 1.20557 
6 1 97.2786 0.55278 98.4856 -0.647754 
1 4 1.37839 99.9863 99.9897 2.10401 
10 1 2.15239 98.6869 98.7804 -0.881205 
11 3 2.65751 98.1489 98.1711 0.367368 
8 3 96.8093 99.7964 98.1161 0.343122 
ITEM: TIMESTEP
156
ITEM: NUMBER OF ATOMS
15
ITEM: BOX BOUNDS pp pp pp
0.0000000000000000e+00 1.0000000000000000e+02
0.0000000000000000e+00 1.0000000000000000e+02
0.0000000000000000e+00 1.0000000000000000e+02
ITEM: ATOMS id type x y z q 
4 1 98.0704 1.90858 0.627598 -0.652013 
9 3 97.243 2.377 0.580153 0.345627 
12 1 2.08096 99.5792 1.86255 -0.865906 
13 3 2.63451 100.025 2.45878 0.368468 
3 1 99.4353 99.6558 0.0733116 -0.860534 
5 1 96.8539 99.4627 0.798817 -0.655068 
7 3 97.2611 98.7763 1.31869 0.345087 
14 1 1.82714 1.55749 99.4569 -0.87531 
15 3 1.42015 2.37337 99.2836 0.37852 
2 2 97.9821 0.373877 99.9699 1.17554 
6 1 97.4634 0.481006 98.3843 -0.643216 
1 4 1.36516 99.7727 100.068 2.08683 
10 1 2.19038 98.5166 98.8396 -0.864694 
11 3 2.72624 98.5116 98.0822 0.369789 
8 3 96.6664 99.979 98.2375 0.346878 
