ITEM: TIMESTEP
0
ITEM: NUMBER OF ATOMS
15
ITEM: BOX BOUNDS pp pp pp
0.0000000000000000e+00 1.0000000000000000e+02
0.0000000000000000e+00 1.0000000000000000e+02
0.0000000000000000e+00 1.0000000000000000e+02
ITEM: ATOMS id type x y z q 
4 1 97.5854 1.44853 0.73289 -0.645365 
9 3 96.7121 1.84003 0.61988 0.34426 
12 1 2.04402 99.7079 1.78758 -0.882665 
13 3 2.51011 99.6839 2.62313 0.365888 
2 2 97.8184 99.9782 0.01397 1.21463 
3 1 99.425 99.7156 0.01654 -0.842401 
5 1 97.0414 98.7262 0.78231 -0.657711 
7 3 97.5034 98.3368 1.53281 0.331405 
14 1 1.78195 1.7752 99.3889 -0.884076 
15 3 1.91399 2.68442 99.1209 0.374159 
6 1 97.1293 0.05734 98.5118 -0.646267 
1 4 1.37839 99.9863 99.9897 2.10267 
10 1 2.15239 98.6869 98.7804 -0.882873 
11 3 2.65751 98.1489 98.1711 0.3668 
8 3 96.8348 99.216 98.1453 0.341547 
ITEM: TIMESTEP
189
ITEM: NUMBER OF ATOMS
15
ITEM: BOX BOUNDS pp pp pp
0.0000000000000000e+00 1.0000000000000000e+02
0.0000000000000000e+00 1.0000000000000000e+02
0.0000000000000000e+00 1.0000000000000000e+02
ITEM: ATOMS id type x y z q 
4 1 97.578 1.46268 0.771499 -0.642937 
9 3 96.8555 1.93523 0.36877 0.346333 
12 1 2.0987 99.5711 1.85548 -0.867203 
13 3 2.64567 100.02 2.45585 0.367847 
2 2 97.8627 99.9905 0.0314553 1.18773 
3 1 99.4448 99.6328 0.0883383 -0.865912 
5 1 96.9946 98.7808 0.788031 -0.648986 
7 3 97.5073 98.3233 1.44699 0.344375 
14 1 1.81343 1.56943 99.4665 -0.877625 
15 3 1.39442 2.36962 99.2538 0.370568 
6 1 97.3093 0.0877659 98.4571 -0.651978 
1 4 1.37079 99.7762 100.067 2.08522 
10 1 2.19025 98.5337 98.8208 -0.865802 
11 3 2.75018 98.5345 98.0809 0.369253 
8 3 96.6725 99.4049 98.2646 0.349116 
