ITEM: TIMESTEP
0
ITEM: NUMBER OF ATOMS
15
ITEM: BOX BOUNDS pp pp pp
0.0000000000000000e+00 1.0000000000000000e+02
0.0000000000000000e+00 1.0000000000000000e+02
0.0000000000000000e+00 1.0000000000000000e+02
ITEM: ATOMS id type x y z q 
4 1 97.3626 1.16858 0.74859 -0.639875 
9 3 96.4417 1.43179 0.64241 0.344556 
12 1 2.04402 99.7079 1.78758 -0.883728 
13 3 2.51011 99.6839 2.62313 0.365525 
2 2 97.7974 99.7468 0.02586 1.2179 
3 1 99.425 99.7156 0.01654 -0.842932 
5 1 97.2122 98.3965 0.7979 -0.659985 
7 3 97.7304 98.0765 1.5445 0.329472 
14 1 1.78195 1.7752 99.3889 -0.883975 
15 3 1.91399 2.68442 99.1209 0.373606 
1 4 1.37839 99.9863 99.9897 2.10143 
10 1 2.15239 98.6869 98.7804 -0.883976 
11 3 2.65751 98.1489 98.1711 0.366529 
6 1 97.0931 99.7276 98.5287 -0.645167 
8 3 96.9188 98.853 98.1632 0.340623 
ITEM: TIMESTEP
188
ITEM: NUMBER OF ATOMS
15
ITEM: BOX BOUNDS pp pp pp
0.0000000000000000e+00 1.0000000000000000e+02
0.0000000000000000e+00 1.0000000000000000e+02
0.0000000000000000e+00 1.0000000000000000e+02
ITEM: ATOMS id type x y z q 
4 1 97.3478 1.10418 0.836072 -0.643772 
9 3 96.6631 1.56691 0.361602 0.346617 
12 1 2.08111 99.5851 1.85884 -0.867555 
13 3 2.66539 100.005 2.44483 0.36709 
2 2 97.8418 99.7231 0.033971 1.19262 
3 1 99.4603 99.612 0.0481001 -0.864695 
5 1 97.18 98.3738 0.761961 -0.649491 
7 3 97.6067 98.15 1.5828 0.344024 
14 1 1.81939 1.57886 99.4609 -0.87874 
15 3 1.39711 2.37465 99.2386 0.36782 
1 4 1.38341 99.7831 100.058 2.085 
10 1 2.23839 98.5495 98.8262 -0.86588 
11 3 2.78221 98.5576 98.0744 0.368645 
6 1 97.2397 99.7965 98.4765 -0.652504 
8 3 96.7132 99.0297 98.2673 0.350824 
