ITEM: TIMESTEP
0
ITEM: NUMBER OF ATOMS
15
ITEM: BOX BOUNDS pp pp pp
0.0000000000000000e+00 1.0000000000000000e+02
0.0000000000000000e+00 1.0000000000000000e+02
0.0000000000000000e+00 1.0000000000000000e+02
ITEM: ATOMS id type x y z q 
2 2 97.8689 0.19363 0.0027 1.20972 
4 1 97.8324 1.68293 0.71933 -0.650916 
9 3 97.0212 2.18905 0.60009 0.344096 
12 1 2.04402 99.7079 1.78758 -0.88156 
13 3 2.51011 99.6839 2.62313 0.366374 
3 1 99.425 99.7156 0.01654 -0.840813 
5 1 96.9241 99.0596 0.76617 -0.655382 
7 3 97.3239 98.6121 1.52003 0.333175 
14 1 1.78195 1.7752 99.3889 -0.883809 
15 3 1.91399 2.68442 99.1209 0.374989 
6 1 97.2071 0.36336 98.4957 -0.647204 
1 4 1.37839 99.9863 99.9897 2.10356 
10 1 2.15239 98.6869 98.7804 -0.881841 
11 3 2.65751 98.1489 98.1711 0.367127 
8 3 96.8038 99.5691 98.1276 0.342489 
ITEM: TIMESTEP
131
ITEM: NUMBER OF ATOMS
15
ITEM: BOX BOUNDS pp pp pp
0.0000000000000000e+00 1.0000000000000000e+02
0.0000000000000000e+00 1.0000000000000000e+02
0.0000000000000000e+00 1.0000000000000000e+02
ITEM: ATOMS id type x y z q 
2 2 97.9196 0.232064 -0.0101537 1.18131 
4 1 97.868 1.75008 0.688747 -0.648149 
9 3 97.0572 2.21302 0.501925 0.345969 
12 1 2.06625 99.5807 1.85994 -0.8663 
13 3 2.64986 100.002 2.44533 0.368055 
3 1 99.4337 99.6494 0.0552794 -0.863087 
5 1 96.8928 99.1927 0.799488 -0.652461 
7 3 97.3655 98.5907 1.36603 0.34475 
14 1 1.83187 1.56304 99.454 -0.876522 
15 3 1.42794 2.3784 99.2711 0.374792 
6 1 97.3688 0.34275 98.4155 -0.64629 
1 4 1.36174 99.7791 100.062 2.08628 
10 1 2.19938 98.5214 98.8432 -0.865346 
11 3 2.76174 98.5138 98.1053 0.369372 
8 3 96.6405 99.7496 98.2527 0.347621 
