ITEM: TIMESTEP
0
ITEM: NUMBER OF ATOMS
15
ITEM: BOX BOUNDS pp pp pp
0.0000000000000000e+00 1.0000000000000000e+02
0.0000000000000000e+00 1.0000000000000000e+02
0.0000000000000000e+00 1.0000000000000000e+02
ITEM: ATOMS id type x y z q 
4 1 97.5503 1.40966 0.7351 -0.644543 
9 3 96.669 1.78286 0.62307 0.344296 
12 1 2.04402 99.7079 1.78758 -0.882827 
13 3 2.51011 99.6839 2.62313 0.365825 
2 2 97.8132 99.9446 0.01571 1.21523 
3 1 99.425 99.7156 0.01654 -0.842549 
5 1 97.0634 98.6766 0.78468 -0.658054 
7 3 97.5342 98.2968 1.53463 0.331126 
14 1 1.78195 1.7752 99.3889 -0.884082 
15 3 1.91399 2.68442 99.1209 0.374061 
6 1 97.1211 0.00954 98.5142 -0.646112 
1 4 1.37839 99.9863 99.9897 2.10251 
10 1 2.15239 98.6869 98.7804 -0.883034 
11 3 2.65751 98.1489 98.1711 0.366754 
8 3 96.8438 99.1622 98.148 0.341405 
ITEM: TIMESTEP
168
ITEM: NUMBER OF ATOMS
15
ITEM: BOX BOUNDS pp pp pp
0.0000000000000000e+00 1.0000000000000000e+02
0.0000000000000000e+00 1.0000000000000000e+02
0.0000000000000000e+00 1.0000000000000000e+02
ITEM: ATOMS id type x y z q 
4 1 97.5449 1.42502 0.767513 -0.6432 
9 3 96.7709 1.85682 0.41861 0.3466 
12 1 2.06298 99.5854 1.86009 -0.86704 
13 3 2.66782 99.9875 2.43731 0.367374 
2 2 97.8512 99.9627 0.0170582 1.18888 
3 1 99.4417 99.6382 0.0492026 -0.865492 
5 1 97.0234 98.7357 0.790336 -0.650427 
7 3 97.5507 98.3043 1.45528 0.344025 
14 1 1.83647 1.57247 99.4541 -0.878351 
15 3 1.43174 2.38363 99.2566 0.370568 
6 1 97.2675 0.0429708 98.453 -0.649879 
1 4 1.36709 99.7877 100.058 2.08507 
10 1 2.20965 98.5307 98.8422 -0.866026 
11 3 2.77495 98.5241 98.1066 0.368906 
8 3 96.6575 99.3343 98.2673 0.348987 
