ITEM: TIMESTEP
0
ITEM: NUMBER OF ATOMS
15
ITEM: BOX BOUNDS pp pp pp
0.0000000000000000e+00 1.0000000000000000e+02
0.0000000000000000e+00 1.0000000000000000e+02
0.0000000000000000e+00 1.0000000000000000e+02
ITEM: ATOMS id type x y z q 
2 2 97.8531 0.1391 0.00557 1.21115 
4 1 97.7661 1.62609 0.72266 -0.649458 
9 3 96.9375 2.10364 0.60498 0.344127 
12 1 2.04402 99.7079 1.78758 -0.881853 
13 3 2.51011 99.6839 2.62313 0.366237 
3 1 99.425 99.7156 0.01654 -0.84132 
5 1 96.9498 98.9726 0.77041 -0.655997 
7 3 97.3663 98.5393 1.52345 0.332728 
14 1 1.78195 1.7752 99.3889 -0.883919 
15 3 1.91399 2.68442 99.1209 0.374748 
6 1 97.1832 0.28597 98.4998 -0.646978 
1 4 1.37839 99.9863 99.9897 2.10335 
10 1 2.15239 98.6869 98.7804 -0.882102 
11 3 2.65751 98.1489 98.1711 0.367038 
8 3 96.8072 99.4783 98.1322 0.342245 
ITEM: TIMESTEP
124
ITEM: NUMBER OF ATOMS
15
ITEM: BOX BOUNDS pp pp pp
0.0000000000000000e+00 1.0000000000000000e+02
0.0000000000000000e+00 1.0000000000000000e+02
0.0000000000000000e+00 1.0000000000000000e+02
ITEM: ATOMS id type x y z q 
2 2 97.8964 0.174937 -0.00754127 1.18402 
4 1 97.7895 1.68171 0.708589 -0.647321 
9 3 96.9793 2.13314 0.492906 0.346201 
12 1 2.05039 99.5893 1.86102 -0.866271 
13 3 2.66396 99.9842 2.4342 0.367748 
3 1 99.4317 99.6497 0.0396289 -0.864049 
5 1 96.9174 99.0874 0.797199 -0.652114 
7 3 97.4111 98.5292 1.38988 0.344562 
14 1 1.84065 1.5665 99.448 -0.877387 
15 3 1.44426 2.3865 99.2703 0.373569 
6 1 97.3296 0.281464 98.4241 -0.646901 
1 4 1.35845 99.7869 100.057 2.08609 
10 1 2.20537 98.5226 98.8516 -0.865384 
11 3 2.77172 98.5111 98.1167 0.369137 
8 3 96.6367 99.6495 98.2534 0.348106 
