ITEM: TIMESTEP
0
ITEM: NUMBER OF ATOMS
15
ITEM: BOX BOUNDS pp pp pp
0.0000000000000000e+00 1.0000000000000000e+02
0.0000000000000000e+00 1.0000000000000000e+02
0.0000000000000000e+00 1.0000000000000000e+02
ITEM: ATOMS id type x y z q 
4 1 97.3626 1.16858 0.74859 -0.639875 
9 3 96.4417 1.43179 0.64241 0.344556 
12 1 2.04402 99.7079 1.78758 -0.883728 
13 3 2.51011 99.6839 2.62313 0.365525 
2 2 97.7974 99.7468 0.02586 1.2179 
3 1 99.425 99.7156 0.01654 -0.842932 
5 1 97.2122 98.3965 0.7979 -0.659985 
7 3 97.7304 98.0765 1.5445 0.329472 
14 1 1.78195 1.7752 99.3889 -0.883975 
15 3 1.91399 2.68442 99.1209 0.373606 
1 4 1.37839 99.9863 99.9897 2.10143 
10 1 2.15239 98.6869 98.7804 -0.883976 
11 3 2.65751 98.1489 98.1711 0.366529 
6 1 97.0931 99.7276 98.5287 -0.645167 
8 3 96.9188 98.853 98.1632 0.340623 
ITEM: TIMESTEP
548
ITEM: NUMBER OF ATOMS
15
ITEM: BOX BOUNDS pp pp pp
0.0000000000000000e+00 1.0000000000000000e+02
0.0000000000000000e+00 1.0000000000000000e+02
0.0000000000000000e+00 1.0000000000000000e+02
ITEM: ATOMS id type x y z q 
4 1 96.9611 1.2108 0.824614 -0.607176 
9 3 96.1512 0.859262 1.18571 0.346016 
12 1 1.2575 99.3694 1.77291 -0.870625 
13 3 1.75305 99.5154 2.5435 0.36744 
2 2 97.4694 0.385418 99.4587 0.855902 
3 1 99.5473 0.777674 99.3611 -0.635913 
5 1 98.7049 99.2279 99.7196 -0.620076 
7 3 98.7591 99.0884 0.698731 0.295517 
14 1 2.52446 1.34458 99.7439 -0.866407 
15 3 2.55813 2.2433 99.5158 0.366956 
1 4 1.23008 99.8962 99.9008 2.07322 
10 1 1.96514 98.4999 98.7628 -0.855773 
11 3 2.75815 98.2741 98.3378 0.369541 
6 1 96.1224 98.9248 99.3169 -0.569674 
8 3 96.6578 98.1729 99.1866 0.351056 
