ITEM: TIMESTEP
0
ITEM: NUMBER OF ATOMS
15
ITEM: BOX BOUNDS pp pp pp
0.0000000000000000e+00 1.0000000000000000e+02
0.0000000000000000e+00 1.0000000000000000e+02
0.0000000000000000e+00 1.0000000000000000e+02
ITEM: ATOMS id type x y z q 
2 2 97.8331 0.05637 0.00991 1.21307 
4 1 97.6704 1.53657 0.72785 -0.64732 
9 3 96.8176 1.97019 0.61256 0.344187 
12 1 2.04402 99.7079 1.78758 -0.88228 
13 3 2.51011 99.6839 2.62313 0.366047 
3 1 99.425 99.7156 0.01654 -0.84195 
5 1 96.994 98.8441 0.77664 -0.656895 
7 3 97.4346 98.4329 1.52839 0.332049 
14 1 1.78195 1.7752 99.3889 -0.884028 
15 3 1.91399 2.68442 99.1209 0.374423 
6 1 97.1524 0.16844 98.506 -0.646616 
1 4 1.37839 99.9863 99.9897 2.10302 
10 1 2.15239 98.6869 98.7804 -0.882498 
11 3 2.65751 98.1489 98.1711 0.36691 
8 3 96.8182 99.3423 98.139 0.341881 
ITEM: TIMESTEP
112
ITEM: NUMBER OF ATOMS
15
ITEM: BOX BOUNDS pp pp pp
0.0000000000000000e+00 1.0000000000000000e+02
0.0000000000000000e+00 1.0000000000000000e+02
0.0000000000000000e+00 1.0000000000000000e+02
ITEM: ATOMS id type x y z q 
2 2 97.8756 0.0862328 0.0020729 1.18618 
4 1 97.6839 1.57937 0.729445 -0.645144 
9 3 96.8801 2.01489 0.462814 0.34617 
12 1 2.06184 99.5842 1.85906 -0.866578 
13 3 2.66459 99.9891 2.43687 0.367623 
3 1 99.4367 99.6441 0.0457227 -0.864868 
5 1 96.9561 98.9404 0.796275 -0.651701 
7 3 97.4704 98.4275 1.41195 0.344191 
14 1 1.83465 1.56756 99.4526 -0.877531 
15 3 1.43136 2.38157 99.2634 0.372502 
6 1 97.3014 0.178616 98.435 -0.647925 
1 4 1.36324 99.7837 100.058 2.08563 
10 1 2.20939 98.5251 98.8458 -0.865804 
11 3 2.78169 98.5166 98.1155 0.369018 
8 3 96.6328 99.521 98.2642 0.34824 
