ITEM: TIMESTEP
0
ITEM: NUMBER OF ATOMS
38
ITEM: BOX BOUNDS pp pp pp
0.0000000000000000e+00 1.0000000000000000e+02
0.0000000000000000e+00 1.0000000000000000e+02
0.0000000000000000e+00 1.0000000000000000e+02
ITEM: ATOMS id type x y z q 
22 2 3.28728 0.324969 1.08658 1.30083 
23 1 2.87829 0.050858 2.63675 -0.641703 
24 1 2.4518 1.61768 0.500209 -0.647115 
25 1 4.88167 0.682839 0.971521 -0.606232 
5 1 98.6488 1.43049 1.64393 -0.693313 
9 2 98.6288 2.46764 0.361615 1.28529 
17 1 97.8654 3.85563 0.757803 -0.61999 
30 3 96.9757 3.79489 1.1221 0.356894 
2 1 0.009742 99.5085 0.490587 -0.707753 
3 1 0.037658 99.5785 3.09398 -0.694214 
21 1 2.92394 99.0309 0.142349 -0.655843 
33 3 1.67137 96.0234 0.146069 0.320229 
36 3 5.49916 99.9484 0.89362 0.373445 
37 3 1.95423 99.8631 2.86567 0.425293 
1 2 99.0792 99.8513 1.78405 1.2592 
4 1 97.7407 98.9165 1.83997 -0.690826 
11 3 99.6435 99.4843 3.96791 0.364278 
27 2 96.7696 98.2576 0.662896 1.24657 
29 1 95.3899 97.715 1.3438 -0.598816 
38 3 94.8628 98.3364 1.85716 0.359201 
7 1 0.986147 0.814794 98.4199 -0.656711 
16 1 0.139389 2.8721 99.8941 -0.664114 
18 2 1.48818 2.12823 99.2995 1.29665 
26 1 2.29454 3.19198 98.3577 -0.617093 
31 3 1.78462 3.91824 97.9833 0.369927 
10 2 97.3995 0.272727 98.4698 1.26121 
13 1 96.4932 0.477285 97.1295 -0.619205 
14 1 97.8987 1.70633 99.089 -0.704693 
32 3 96.8518 1.01718 96.4164 0.359804 
6 2 0.228189 99.4384 98.8546 0.878506 
12 2 2.60847 97.8019 99.1417 0.867079 
19 1 3.78044 97.8042 97.9966 -0.588414 
20 1 2.54446 96.3385 99.8866 -0.604812 
35 3 3.75978 97.107 97.3315 0.335368 
8 1 98.7435 99.3423 98.1562 -0.687763 
15 1 96.4983 99.4723 99.573 -0.673652 
28 1 97.4725 96.9668 99.9451 -0.628399 
34 3 98.0031 97.1336 99.1564 0.340878 
ITEM: TIMESTEP
285
ITEM: NUMBER OF ATOMS
38
ITEM: BOX BOUNDS pp pp pp
0.0000000000000000e+00 1.0000000000000000e+02
0.0000000000000000e+00 1.0000000000000000e+02
0.0000000000000000e+00 1.0000000000000000e+02
ITEM: ATOMS id type x y z q 
22 2 3.34406 0.37881 1.11477 1.29366 
23 1 2.82162 -0.0526467 2.60027 -0.632171 
24 1 2.43097 1.59541 0.578731 -0.69177 
25 1 4.93284 0.754523 1.11097 -0.608045 
5 1 98.7878 1.30264 1.47188 -0.738418 
9 2 98.6729 2.31693 0.228375 1.33554 
17 1 97.8199 3.61943 0.696437 -0.626403 
30 3 97.0103 3.43512 1.16432 0.363686 
2 1 0.172559 99.1823 0.654041 -0.766204 
3 1 99.9851 99.6805 3.21501 -0.698176 
21 1 3.25549 99.0623 0.154531 -0.698787 
33 3 1.40388 96.8152 0.608992 0.361162 
36 3 5.47497 0.0430838 0.778977 0.369956 
37 3 1.86603 99.913 2.72362 0.42349 
1 2 99.2053 99.782 1.79145 1.29869 
4 1 97.8478 98.8875 1.80366 -0.70896 
11 3 99.4388 99.3945 3.95137 0.372388 
27 2 96.826 98.2299 0.701816 1.25809 
29 1 95.4089 97.7747 1.37501 -0.616413 
38 3 94.8746 98.4834 1.72176 0.358773 
7 1 1.09765 0.601471 98.5353 -0.684552 
16 1 0.15421 2.72147 99.7412 -0.699543 
18 2 1.51537 1.95828 99.2958 1.31529 
26 1 2.31691 2.9418 98.2526 -0.618038 
31 3 1.92049 3.80446 98.1597 0.380434 
10 2 97.5563 0.14334 98.445 1.31202 
13 1 96.8521 0.294212 96.9948 -0.6298 
14 1 97.8801 1.60947 99.015 -0.740087 
32 3 96.9286 1.16446 96.6095 0.373746 
6 2 0.388764 99.2605 99.0568 0.961433 
12 2 2.48054 98.0413 99.157 0.922159 
19 1 2.83281 98.0777 97.574 -0.628235 
20 1 1.88143 96.6752 99.7935 -0.643543 
35 3 3.46005 97.4253 97.2752 0.362558 
8 1 98.9116 99.2526 98.3587 -0.702594 
15 1 96.6338 99.3677 99.5347 -0.698609 
28 1 97.6432 97.0779 99.8633 -0.615249 
34 3 98.1406 97.5267 99.1615 0.382526 
