ITEM: TIMESTEP
0
ITEM: NUMBER OF ATOMS
15
ITEM: BOX BOUNDS pp pp pp
0.0000000000000000e+00 1.0000000000000000e+02
0.0000000000000000e+00 1.0000000000000000e+02
0.0000000000000000e+00 1.0000000000000000e+02
ITEM: ATOMS id type x y z q 
4 1 97.269 1.02112 0.75671 -0.6373 
9 3 96.3317 1.21957 0.65393 0.344751 
12 1 2.04402 99.7079 1.78758 -0.884216 
13 3 2.51011 99.6839 2.62313 0.365404 
2 2 97.7992 99.6333 0.03161 1.21881 
3 1 99.425 99.7156 0.01654 -0.842771 
5 1 97.3123 98.2453 0.80491 -0.661041 
7 3 97.8542 97.9619 1.54949 0.328504 
14 1 1.78195 1.7752 99.3889 -0.883821 
15 3 1.91399 2.68442 99.1209 0.37345 
1 4 1.37839 99.9863 99.9897 2.1007 
10 1 2.15239 98.6869 98.7804 -0.884512 
11 3 2.65751 98.1489 98.1711 0.366431 
6 1 97.0927 99.5656 98.537 -0.644582 
8 3 96.9784 98.6811 98.1715 0.340198 
ITEM: TIMESTEP
144
ITEM: NUMBER OF ATOMS
15
ITEM: BOX BOUNDS pp pp pp
0.0000000000000000e+00 1.0000000000000000e+02
0.0000000000000000e+00 1.0000000000000000e+02
0.0000000000000000e+00 1.0000000000000000e+02
ITEM: ATOMS id type x y z q 
4 1 97.2388 0.791176 0.961982 -0.656238 
9 3 96.6319 1.33229 0.464677 0.345516 
12 1 2.02411 99.5987 1.84744 -0.864435 
13 3 2.59999 99.9946 2.45789 0.367716 
2 2 97.887 99.5672 0.0265174 1.19318 
3 1 99.4933 99.7402 -0.127197 -0.854799 
5 1 97.5122 98.115 0.762308 -0.652836 
7 3 97.1912 98.2366 1.65121 0.347161 
14 1 1.94538 1.60373 99.4598 -0.877405 
15 3 1.56218 2.40907 99.2035 0.364921 
1 4 1.41764 99.8182 100.016 2.08744 
10 1 2.2902 98.581 98.8009 -0.864261 
11 3 2.7966 98.5866 98.0235 0.367376 
6 1 97.1185 99.6011 98.5429 -0.651637 
8 3 96.7918 98.7417 98.2917 0.348307 
