ITEM: TIMESTEP
0
ITEM: NUMBER OF ATOMS
38
ITEM: BOX BOUNDS pp pp pp
0.0000000000000000e+00 1.0000000000000000e+02
0.0000000000000000e+00 1.0000000000000000e+02
0.0000000000000000e+00 1.0000000000000000e+02
ITEM: ATOMS id type x y z q 
4 1 93.3163 1.81479 1.89832 -0.692432 
27 2 93.4017 0.90948 3.27142 1.23268 
29 1 92.0342 1.14007 4.16019 -0.584813 
38 3 91.2529 0.66416 3.85172 0.35305 
1 2 93.766 1.73691 0.31518 1.28388 
2 1 95.3636 1.34795 0.18973 -1.05937 
5 4 96.4275 0.09251 0.37449 2.19478 
20 1 99.1125 3.12024 0.2112 -0.542961 
28 1 94.6958 1.3907 4.16816 -0.59862 
33 3 99.2631 3.06639 1.16511 0.28149 
34 3 95.5594 1.06183 3.8804 0.312839 
14 1 93.616 98.1351 0.46175 -0.707741 
15 1 93.5454 99.3083 2.90361 -0.67256 
8 1 95.905 99.1325 1.62904 -1.0578 
10 2 94.4428 98.36 1.88922 1.24776 
13 1 94.7187 96.8927 2.58706 -0.597251 
32 3 95.2091 96.2607 2.04158 0.353694 
19 1 0.28479 0.97363 99.1898 -0.571611 
35 3 0.79361 0.76495 99.9855 0.298435 
3 1 93.4815 3.19082 99.5945 -0.609078 
6 1 92.8472 0.57735 99.5726 -0.699764 
11 3 92.5785 3.52475 99.6961 0.366568 
12 2 98.822 1.68186 99.4558 0.631636 
21 1 98.0373 1.95713 98.0385 -0.613874 
22 2 97.5559 1.27504 96.6221 1.21992 
23 1 97.2873 2.48704 95.5334 -0.604003 
24 1 96.1551 0.40424 96.7911 -0.657754 
25 1 98.7588 0.33104 96.0138 -0.604502 
36 3 99.5719 0.81291 95.8034 0.385497 
37 3 96.5411 3.06159 95.7572 0.377661 
9 2 93.0359 98.9876 99.1546 1.22471 
17 1 91.5715 98.3642 98.7208 -0.59506 
30 3 90.881 98.4174 99.3964 0.353424 
7 1 96.4351 99.0838 99.0665 -1.05631 
16 1 94.078 98.8956 97.8671 -0.656431 
18 2 95.7049 99.0338 97.5948 1.3008 
26 1 96.2029 97.6891 96.7813 -0.605098 
31 3 95.7294 96.8757 97.0037 0.368204 
ITEM: TIMESTEP
67
ITEM: NUMBER OF ATOMS
38
ITEM: BOX BOUNDS pp pp pp
0.0000000000000000e+00 1.0000000000000000e+02
0.0000000000000000e+00 1.0000000000000000e+02
0.0000000000000000e+00 1.0000000000000000e+02
ITEM: ATOMS id type x y z q 
4 1 93.1045 1.95138 1.83597 -0.676658 
27 2 93.3246 0.960088 3.12353 1.21098 
29 1 92.0642 1.1637 4.20479 -0.59477 
38 3 91.4142 0.470044 4.13384 0.362825 
1 2 93.6128 1.76202 0.288925 1.28093 
2 1 95.2102 1.495 0.254402 -0.857018 
5 4 96.687 0.274584 0.339666 1.90957 
20 1 98.84 3.09877 0.390438 -0.637785 
28 1 94.8402 1.18552 3.80781 -0.617001 
33 3 99.5187 3.13525 1.06222 0.324182 
34 3 95.4444 0.532127 3.43983 0.378024 
14 1 94.1107 98.2126 0.406173 -0.723023 
15 1 93.2919 99.3865 2.66481 -0.696534 
8 1 95.9141 99.4321 1.89935 -0.89292 
10 2 94.5195 98.5551 1.9575 1.21691 
13 1 94.8163 97.0918 2.71469 -0.610978 
32 3 94.8497 96.3651 2.09872 0.362922 
19 1 -0.120857 0.753888 99.8727 -0.708815 
35 3 0.821867 0.695276 99.7273 0.325818 
3 1 93.222 3.15056 99.4454 -0.612003 
6 1 92.8354 0.480618 99.6294 -0.707514 
11 3 92.6026 3.70313 99.9108 0.372828 
12 2 99.1726 2.0554 99.1767 0.836114 
21 1 97.8176 1.598 98.4045 -0.740133 
22 2 97.5483 1.18763 96.7956 1.17874 
23 1 97.4376 2.5872 95.8902 -0.642989 
24 1 96.1498 0.342302 96.6287 -0.656052 
25 1 98.8838 0.359154 96.2264 -0.632369 
36 3 99.2613 0.771901 95.4556 0.360587 
37 3 96.5355 2.84615 95.7275 0.378005 
9 2 93.2703 98.9584 99.2107 1.23442 
17 1 91.821 98.1396 98.9999 -0.605785 
30 3 91.0769 98.6559 99.2974 0.36622 
7 1 96.552 99.0494 98.8785 -0.86319 
16 1 94.1394 98.9651 97.8147 -0.667611 
18 2 95.747 98.9869 97.4731 1.28251 
26 1 96.1226 97.5923 96.6373 -0.608446 
31 3 95.5244 96.8733 96.812 0.369997 
