ITEM: TIMESTEP
0
ITEM: NUMBER OF ATOMS
15
ITEM: BOX BOUNDS pp pp pp
0.0000000000000000e+00 1.0000000000000000e+02
0.0000000000000000e+00 1.0000000000000000e+02
0.0000000000000000e+00 1.0000000000000000e+02
ITEM: ATOMS id type x y z q 
4 1 97.269 1.02112 0.75671 -0.619636 
9 3 96.3317 1.21957 0.65393 0.344475 
12 1 2.04402 99.7079 1.78758 -0.572202 
13 3 2.51011 99.6839 2.62313 0.341094 
2 2 97.7992 99.6333 0.03161 1.19001 
3 1 99.425 99.7156 0.01654 -0.558008 
5 1 97.3123 98.2453 0.80491 -0.657871 
7 3 97.8542 97.9619 1.54949 0.341516 
14 1 1.78195 1.7752 99.3889 -0.566941 
15 3 1.91399 2.68442 99.1209 0.348031 
1 2 1.37839 99.9863 99.9897 0.928292 
10 1 2.15239 98.6869 98.7804 -0.571782 
11 3 2.65751 98.1489 98.1711 0.341904 
6 1 97.0927 99.5656 98.537 -0.633987 
8 3 96.9784 98.6811 98.1715 0.345109 
ITEM: TIMESTEP
136
ITEM: NUMBER OF ATOMS
15
ITEM: BOX BOUNDS pp pp pp
0.0000000000000000e+00 1.0000000000000000e+02
0.0000000000000000e+00 1.0000000000000000e+02
0.0000000000000000e+00 1.0000000000000000e+02
ITEM: ATOMS id type x y z q 
4 1 97.2976 1.19521 0.650364 -0.632532 
9 3 96.4448 1.38672 0.269155 0.357638 
12 1 1.17114 99.0959 1.42379 -0.672733 
13 3 1.77583 99.5578 2.00023 0.35279 
2 2 97.9889 99.8575 100.006 1.21329 
3 1 99.5569 0.154474 99.6157 -0.663672 
5 1 98.1248 98.646 1.10275 -0.646532 
7 3 99.0475 98.5673 1.38022 0.395054 
14 1 2.00097 1.14267 99.8991 -0.67635 
15 3 1.4684 1.89195 99.6365 0.356287 
1 2 1.12563 99.7576 99.9242 1.18899 
10 1 1.67947 98.7205 98.7856 -0.631061 
11 3 2.50221 99.0031 98.3949 0.35127 
6 1 97.1454 99.3436 98.7017 -0.652473 
8 3 97.1712 98.397 98.5931 0.360037 
