ITEM: TIMESTEP
0
ITEM: NUMBER OF ATOMS
15
ITEM: BOX BOUNDS pp pp pp
0.0000000000000000e+00 1.0000000000000000e+02
0.0000000000000000e+00 1.0000000000000000e+02
0.0000000000000000e+00 1.0000000000000000e+02
ITEM: ATOMS id type x y z q 
4 1 97.269 1.02112 0.75671 -0.6373 
9 3 96.3317 1.21957 0.65393 0.344751 
12 1 2.04402 99.7079 1.78758 -0.884216 
13 3 2.51011 99.6839 2.62313 0.365404 
2 2 97.7992 99.6333 0.03161 1.21881 
3 1 99.425 99.7156 0.01654 -0.842771 
5 1 97.3123 98.2453 0.80491 -0.661041 
7 3 97.8542 97.9619 1.54949 0.328504 
14 1 1.78195 1.7752 99.3889 -0.883821 
15 3 1.91399 2.68442 99.1209 0.37345 
1 4 1.37839 99.9863 99.9897 2.1007 
10 1 2.15239 98.6869 98.7804 -0.884512 
11 3 2.65751 98.1489 98.1711 0.366431 
6 1 97.0927 99.5656 98.537 -0.644582 
8 3 96.9784 98.6811 98.1715 0.340198 
ITEM: TIMESTEP
128
ITEM: NUMBER OF ATOMS
15
ITEM: BOX BOUNDS pp pp pp
0.0000000000000000e+00 1.0000000000000000e+02
0.0000000000000000e+00 1.0000000000000000e+02
0.0000000000000000e+00 1.0000000000000000e+02
ITEM: ATOMS id type x y z q 
4 1 97.241 0.791203 0.962274 -0.656331 
9 3 96.6344 1.33284 0.465113 0.345459 
12 1 2.0257 99.5997 1.84732 -0.86435 
13 3 2.60188 99.996 2.4573 0.367811 
2 2 97.8878 99.5664 0.026992 1.19322 
3 1 99.494 99.7377 -0.126649 -0.855001 
5 1 97.5115 98.1145 0.763136 -0.65271 
7 3 97.182 98.2384 1.64866 0.34712 
14 1 1.94417 1.60362 99.46 -0.877261 
15 3 1.56032 2.40893 99.2046 0.364903 
1 4 1.41802 99.8174 100.016 2.08766 
10 1 2.29219 98.5817 98.8008 -0.864437 
11 3 2.79528 98.5879 98.0216 0.367485 
6 1 97.1187 99.6004 98.5438 -0.651795 
8 3 96.7938 98.7406 98.292 0.348224 
