 Entering Gaussian System, Link 0=g16
 Initial command:
 /opt/software/gaussian/g16.b01/l1.exe "/localscratch/sarashs.33237163.0/Gau-101958.inp" -scrdir="/localscratch/sarashs.33237163.0/"
 Entering Link 1 = /opt/software/gaussian/g16.b01/l1.exe PID=    101959.
  
 Copyright (c) 1988-2017, Gaussian, Inc.  All Rights Reserved.
  
 This is part of the Gaussian(R) 16 program.  It is based on
 the Gaussian(R) 09 system (copyright 2009, Gaussian, Inc.),
 the Gaussian(R) 03 system (copyright 2003, Gaussian, Inc.),
 the Gaussian(R) 98 system (copyright 1998, Gaussian, Inc.),
 the Gaussian(R) 94 system (copyright 1995, Gaussian, Inc.),
 the Gaussian 92(TM) system (copyright 1992, Gaussian, Inc.),
 the Gaussian 90(TM) system (copyright 1990, Gaussian, Inc.),
 the Gaussian 88(TM) system (copyright 1988, Gaussian, Inc.),
 the Gaussian 86(TM) system (copyright 1986, Carnegie Mellon
 University), and the Gaussian 82(TM) system (copyright 1983,
 Carnegie Mellon University). Gaussian is a federally registered
 trademark of Gaussian, Inc.
  
 This software contains proprietary and confidential information,
 including trade secrets, belonging to Gaussian, Inc.
  
 This software is provided under written license and may be
 used, copied, transmitted, or stored only in accord with that
 written license.
  
 The following legend is applicable only to US Government
 contracts under FAR:
  
                    RESTRICTED RIGHTS LEGEND
  
 Use, reproduction and disclosure by the US Government is
 subject to restrictions as set forth in subparagraphs (a)
 and (c) of the Commercial Computer Software - Restricted
 Rights clause in FAR 52.227-19.
  
 Gaussian, Inc.
 340 Quinnipiac St., Bldg. 40, Wallingford CT 06492
  
  
 ---------------------------------------------------------------
 Warning -- This program may not be used in any manner that
 competes with the business of Gaussian, Inc. or will provide
 assistance to any competitor of Gaussian, Inc.  The licensee
 of this program is prohibited from giving any competitor of
 Gaussian, Inc. access to this program.  By using this program,
 the user acknowledges that Gaussian, Inc. is engaged in the
 business of creating and licensing software in the field of
 computational chemistry and represents and warrants to the
 licensee that it is not a competitor of Gaussian, Inc. and that
 it will not use this program in any manner prohibited above.
 ---------------------------------------------------------------
  

 Cite this work as:
 Gaussian 16, Revision B.01,
 M. J. Frisch, G. W. Trucks, H. B. Schlegel, G. E. Scuseria, 
 M. A. Robb, J. R. Cheeseman, G. Scalmani, V. Barone, 
 G. A. Petersson, H. Nakatsuji, X. Li, M. Caricato, A. V. Marenich, 
 J. Bloino, B. G. Janesko, R. Gomperts, B. Mennucci, H. P. Hratchian, 
 J. V. Ortiz, A. F. Izmaylov, J. L. Sonnenberg, D. Williams-Young, 
 F. Ding, F. Lipparini, F. Egidi, J. Goings, B. Peng, A. Petrone, 
 T. Henderson, D. Ranasinghe, V. G. Zakrzewski, J. Gao, N. Rega, 
 G. Zheng, W. Liang, M. Hada, M. Ehara, K. Toyota, R. Fukuda, 
 J. Hasegawa, M. Ishida, T. Nakajima, Y. Honda, O. Kitao, H. Nakai, 
 T. Vreven, K. Throssell, J. A. Montgomery, Jr., J. E. Peralta, 
 F. Ogliaro, M. J. Bearpark, J. J. Heyd, E. N. Brothers, K. N. Kudin, 
 V. N. Staroverov, T. A. Keith, R. Kobayashi, J. Normand, 
 K. Raghavachari, A. P. Rendell, J. C. Burant, S. S. Iyengar, 
 J. Tomasi, M. Cossi, J. M. Millam, M. Klene, C. Adamo, R. Cammi, 
 J. W. Ochterski, R. L. Martin, K. Morokuma, O. Farkas, 
 J. B. Foresman, and D. J. Fox, Gaussian, Inc., Wallingford CT, 2016.
 
 ******************************************
 Gaussian 16:  ES64L-G16RevB.01 20-Dec-2017
                20-Jun-2020 
 ******************************************
 %NProcShared=16
 Will use up to   16 processors via shared memory.
 ----------------------------
 #n B3LYP/GEN PSEUDO=READ Opt
 ----------------------------
 1/18=20,19=15,26=3,38=1/1,3;
 2/9=110,12=2,17=6,18=5,40=1/2;
 3/5=7,11=2,16=1,17=8,25=1,30=1,71=1,74=-5/1,2,3;
 4//1;
 5/5=2,38=5/2;
 6/7=2,8=2,9=2,10=2,28=1/1;
 7//1,2,3,16;
 1/18=20,19=15,26=3/3(2);
 2/9=110/2;
 99//99;
 2/9=110/2;
 3/5=7,6=1,11=2,16=1,17=8,25=1,30=1,71=1,74=-5,82=7/1,2,3;
 4/5=5,16=3,69=1/1;
 5/5=2,38=5/2;
 7//1,2,3,16;
 1/18=20,19=15,26=3/3(-5);
 2/9=110/2;
 6/7=2,8=2,9=2,10=2,19=2,28=1/1;
 99/9=1/99;
 -----
 Title
 -----
 Symbolic Z-matrix:
 Charge =  0 Multiplicity = 1
 Zr                   -7.5712    0.06476  -0.12723 
 O                    -5.59262   0.19538  -0.1755 
 O                    -8.27921   1.66271  -1.07062 
 O                    -8.15122   0.04407   1.77333 
 O                    -8.17316  -1.57597  -1.07138 
 Si                   -8.23726  -2.31823  -2.47629 
 Si                   -7.66039   0.15718   3.28294 
 Si                   -4.37456   1.21525  -0.15121 
 Si                   -9.49584   2.6607   -1.29035 
 O                    -6.07225   0.26587   3.32614 
 O                    -8.12386  -1.13332   4.09207 
 O                    -8.29653   1.45302   3.95104 
 O                    -10.47064   2.06525  -2.39859 
 O                    -8.93767   4.07361  -1.76547 
 O                    -10.28222   2.83723   0.08169 
 O                    -3.02359   0.43025   0.14706 
 O                    -4.63242   2.28592   0.99833 
 O                    -4.27928   1.9503   -1.55963 
 O                    -8.98561  -3.7128   -2.30797 
 O                    -6.75523  -2.56795  -2.9999 
 O                    -9.02371  -1.41024  -3.52074 
 H                    -8.51082   2.28077   3.84205 
 H                    -8.18896  -1.99172   4.09115 
 H                    -11.05017   2.9524    0.45429 
 H                    -8.24383   4.51554  -2.02134 
 H                    -10.54032   1.78053  -3.20852 
 H                    -5.32633  -0.16359   3.34944 
 H                    -5.07268   2.47072   1.71517 
 H                    -2.2208    0.48558   0.45379 
 H                    -4.4028    1.88313  -2.40963 
 H                    -5.91857  -2.40562  -2.87486 
 H                    -8.90078  -4.5533   -2.14003 
 H                    -9.62387  -0.80183  -3.62859 
 

 GradGradGradGradGradGradGradGradGradGradGradGradGradGradGradGradGradGrad
 Berny optimization.
 Initialization pass.
                           ----------------------------
                           !    Initial Parameters    !
                           ! (Angstroms and Degrees)  !
 --------------------------                            --------------------------
 ! Name  Definition              Value          Derivative Info.                !
 --------------------------------------------------------------------------------
 ! R1    R(1,2)                  1.9835         estimate D2E/DX2                !
 ! R2    R(1,3)                  1.9861         estimate D2E/DX2                !
 ! R3    R(1,4)                  1.9872         estimate D2E/DX2                !
 ! R4    R(1,5)                  1.9864         estimate D2E/DX2                !
 ! R5    R(2,8)                  1.5888         estimate D2E/DX2                !
 ! R6    R(3,9)                  1.5889         estimate D2E/DX2                !
 ! R7    R(4,7)                  1.5914         estimate D2E/DX2                !
 ! R8    R(5,6)                  1.5902         estimate D2E/DX2                !
 ! R9    R(6,19)                 1.5916         estimate D2E/DX2                !
 ! R10   R(6,20)                 1.5915         estimate D2E/DX2                !
 ! R11   R(6,21)                 1.5918         estimate D2E/DX2                !
 ! R12   R(7,10)                 1.5924         estimate D2E/DX2                !
 ! R13   R(7,11)                 1.5921         estimate D2E/DX2                !
 ! R14   R(7,12)                 1.5907         estimate D2E/DX2                !
 ! R15   R(8,16)                 1.5907         estimate D2E/DX2                !
 ! R16   R(8,17)                 1.5919         estimate D2E/DX2                !
 ! R17   R(8,18)                 1.5915         estimate D2E/DX2                !
 ! R18   R(9,13)                 1.5915         estimate D2E/DX2                !
 ! R19   R(9,14)                 1.5917         estimate D2E/DX2                !
 ! R20   R(9,15)                 1.5912         estimate D2E/DX2                !
 ! R21   R(10,27)                0.861          estimate D2E/DX2                !
 ! R22   R(11,23)                0.8609         estimate D2E/DX2                !
 ! R23   R(12,22)                0.862          estimate D2E/DX2                !
 ! R24   R(13,26)                0.8613         estimate D2E/DX2                !
 ! R25   R(14,25)                0.8615         estimate D2E/DX2                !
 ! R26   R(15,24)                0.8613         estimate D2E/DX2                !
 ! R27   R(16,29)                0.8612         estimate D2E/DX2                !
 ! R28   R(17,28)                0.8613         estimate D2E/DX2                !
 ! R29   R(18,30)                0.8616         estimate D2E/DX2                !
 ! R30   R(19,32)                0.8613         estimate D2E/DX2                !
 ! R31   R(20,31)                0.8614         estimate D2E/DX2                !
 ! R32   R(21,33)                0.8614         estimate D2E/DX2                !
 ! A1    A(2,1,3)              106.9211         estimate D2E/DX2                !
 ! A2    A(2,1,4)              108.3679         estimate D2E/DX2                !
 ! A3    A(2,1,5)              110.1892         estimate D2E/DX2                !
 ! A4    A(3,1,4)              111.0148         estimate D2E/DX2                !
 ! A5    A(3,1,5)              109.3146         estimate D2E/DX2                !
 ! A6    A(4,1,5)              110.9488         estimate D2E/DX2                !
 ! A7    A(1,2,8)              143.7695         estimate D2E/DX2                !
 ! A8    A(1,3,9)              147.5661         estimate D2E/DX2                !
 ! A9    A(1,4,7)              144.733          estimate D2E/DX2                !
 ! A10   A(1,5,6)              144.8523         estimate D2E/DX2                !
 ! A11   A(5,6,19)             109.5423         estimate D2E/DX2                !
 ! A12   A(5,6,20)             109.0481         estimate D2E/DX2                !
 ! A13   A(5,6,21)             109.4719         estimate D2E/DX2                !
 ! A14   A(19,6,20)            109.5817         estimate D2E/DX2                !
 ! A15   A(19,6,21)            109.6876         estimate D2E/DX2                !
 ! A16   A(20,6,21)            109.4938         estimate D2E/DX2                !
 ! A17   A(4,7,10)             109.7656         estimate D2E/DX2                !
 ! A18   A(4,7,11)             109.5535         estimate D2E/DX2                !
 ! A19   A(4,7,12)             109.4495         estimate D2E/DX2                !
 ! A20   A(10,7,11)            109.3811         estimate D2E/DX2                !
 ! A21   A(10,7,12)            109.3806         estimate D2E/DX2                !
 ! A22   A(11,7,12)            109.2958         estimate D2E/DX2                !
 ! A23   A(2,8,16)             109.7061         estimate D2E/DX2                !
 ! A24   A(2,8,17)             108.5767         estimate D2E/DX2                !
 ! A25   A(2,8,18)             109.1975         estimate D2E/DX2                !
 ! A26   A(16,8,17)            109.516          estimate D2E/DX2                !
 ! A27   A(16,8,18)            110.0603         estimate D2E/DX2                !
 ! A28   A(17,8,18)            109.7607         estimate D2E/DX2                !
 ! A29   A(3,9,13)             109.2869         estimate D2E/DX2                !
 ! A30   A(3,9,14)             109.288          estimate D2E/DX2                !
 ! A31   A(3,9,15)             109.1994         estimate D2E/DX2                !
 ! A32   A(13,9,14)            109.818          estimate D2E/DX2                !
 ! A33   A(13,9,15)            109.8298         estimate D2E/DX2                !
 ! A34   A(14,9,15)            109.4021         estimate D2E/DX2                !
 ! A35   A(7,10,27)            146.1667         estimate D2E/DX2                !
 ! A36   A(7,11,23)            146.0676         estimate D2E/DX2                !
 ! A37   A(7,12,22)            145.9589         estimate D2E/DX2                !
 ! A38   A(9,13,26)            145.893          estimate D2E/DX2                !
 ! A39   A(9,14,25)            145.733          estimate D2E/DX2                !
 ! A40   A(9,15,24)            145.942          estimate D2E/DX2                !
 ! A41   A(8,16,29)            145.7713         estimate D2E/DX2                !
 ! A42   A(8,17,28)            145.9027         estimate D2E/DX2                !
 ! A43   A(8,18,30)            145.9432         estimate D2E/DX2                !
 ! A44   A(6,19,32)            146.0328         estimate D2E/DX2                !
 ! A45   A(6,20,31)            145.8066         estimate D2E/DX2                !
 ! A46   A(6,21,33)            146.0248         estimate D2E/DX2                !
 ! D1    D(3,1,2,8)             33.6555         estimate D2E/DX2                !
 ! D2    D(4,1,2,8)            -86.0784         estimate D2E/DX2                !
 ! D3    D(5,1,2,8)            152.3555         estimate D2E/DX2                !
 ! D4    D(2,1,3,9)           -157.3274         estimate D2E/DX2                !
 ! D5    D(4,1,3,9)            -39.3114         estimate D2E/DX2                !
 ! D6    D(5,1,3,9)             83.4057         estimate D2E/DX2                !
 ! D7    D(2,1,4,7)              4.1415         estimate D2E/DX2                !
 ! D8    D(3,1,4,7)           -112.9932         estimate D2E/DX2                !
 ! D9    D(5,1,4,7)            125.2394         estimate D2E/DX2                !
 ! D10   D(2,1,5,6)            -64.484          estimate D2E/DX2                !
 ! D11   D(3,1,5,6)             52.7406         estimate D2E/DX2                !
 ! D12   D(4,1,5,6)            175.4971         estimate D2E/DX2                !
 ! D13   D(1,2,8,16)           165.2726         estimate D2E/DX2                !
 ! D14   D(1,2,8,17)            45.6205         estimate D2E/DX2                !
 ! D15   D(1,2,8,18)           -74.0295         estimate D2E/DX2                !
 ! D16   D(1,3,9,13)           -86.5234         estimate D2E/DX2                !
 ! D17   D(1,3,9,14)           153.2767         estimate D2E/DX2                !
 ! D18   D(1,3,9,15)            33.637          estimate D2E/DX2                !
 ! D19   D(1,4,7,10)            -4.1251         estimate D2E/DX2                !
 ! D20   D(1,4,7,11)          -124.2466         estimate D2E/DX2                !
 ! D21   D(1,4,7,12)           115.9312         estimate D2E/DX2                !
 ! D22   D(1,5,6,19)          -178.9903         estimate D2E/DX2                !
 ! D23   D(1,5,6,20)            61.0897         estimate D2E/DX2                !
 ! D24   D(1,5,6,21)           -58.6808         estimate D2E/DX2                !
 ! D25   D(5,6,19,32)          -90.1998         estimate D2E/DX2                !
 ! D26   D(20,6,19,32)          29.3931         estimate D2E/DX2                !
 ! D27   D(21,6,19,32)         149.6223         estimate D2E/DX2                !
 ! D28   D(5,6,20,31)           -8.5534         estimate D2E/DX2                !
 ! D29   D(19,6,20,31)        -128.4491         estimate D2E/DX2                !
 ! D30   D(21,6,20,31)         111.2036         estimate D2E/DX2                !
 ! D31   D(5,6,21,33)          -27.4816         estimate D2E/DX2                !
 ! D32   D(19,6,21,33)          92.7391         estimate D2E/DX2                !
 ! D33   D(20,6,21,33)        -146.9782         estimate D2E/DX2                !
 ! D34   D(4,7,10,27)          -87.4295         estimate D2E/DX2                !
 ! D35   D(11,7,10,27)          32.7968         estimate D2E/DX2                !
 ! D36   D(12,7,10,27)         152.4722         estimate D2E/DX2                !
 ! D37   D(4,7,11,23)           44.8544         estimate D2E/DX2                !
 ! D38   D(10,7,11,23)         -75.5017         estimate D2E/DX2                !
 ! D39   D(12,7,11,23)         164.7707         estimate D2E/DX2                !
 ! D40   D(4,7,12,22)          -40.0116         estimate D2E/DX2                !
 ! D41   D(10,7,12,22)          80.2802         estimate D2E/DX2                !
 ! D42   D(11,7,12,22)        -159.9919         estimate D2E/DX2                !
 ! D43   D(2,8,16,29)         -155.6793         estimate D2E/DX2                !
 ! D44   D(17,8,16,29)         -36.6035         estimate D2E/DX2                !
 ! D45   D(18,8,16,29)          84.1466         estimate D2E/DX2                !
 ! D46   D(2,8,17,28)           18.0534         estimate D2E/DX2                !
 ! D47   D(16,8,17,28)        -101.7174         estimate D2E/DX2                !
 ! D48   D(18,8,17,28)         137.3509         estimate D2E/DX2                !
 ! D49   D(2,8,18,30)          -32.2125         estimate D2E/DX2                !
 ! D50   D(16,8,18,30)          88.2687         estimate D2E/DX2                !
 ! D51   D(17,8,18,30)        -151.1285         estimate D2E/DX2                !
 ! D52   D(3,9,13,26)          -56.8882         estimate D2E/DX2                !
 ! D53   D(14,9,13,26)          62.9862         estimate D2E/DX2                !
 ! D54   D(15,9,13,26)        -176.661          estimate D2E/DX2                !
 ! D55   D(3,9,14,25)            7.899          estimate D2E/DX2                !
 ! D56   D(13,9,14,25)        -111.9746         estimate D2E/DX2                !
 ! D57   D(15,9,14,25)         127.4137         estimate D2E/DX2                !
 ! D58   D(3,9,15,24)         -145.2301         estimate D2E/DX2                !
 ! D59   D(13,9,15,24)         -25.4039         estimate D2E/DX2                !
 ! D60   D(14,9,15,24)          95.2006         estimate D2E/DX2                !
 --------------------------------------------------------------------------------
 Trust Radius=3.00D-01 FncErr=1.00D-07 GrdErr=1.00D-06 EigMax=2.50D+02 EigMin=1.00D-04
 Number of steps in this run=    148 maximum allowed number of steps=    198.
 GradGradGradGradGradGradGradGradGradGradGradGradGradGradGradGradGradGrad

                          Input orientation:                          
 ---------------------------------------------------------------------
 Center     Atomic      Atomic             Coordinates (Angstroms)
 Number     Number       Type             X           Y           Z
 ---------------------------------------------------------------------
      1         40           0       -7.571200    0.064760   -0.127230
      2          8           0       -5.592620    0.195380   -0.175500
      3          8           0       -8.279210    1.662710   -1.070620
      4          8           0       -8.151220    0.044070    1.773330
      5          8           0       -8.173160   -1.575970   -1.071380
      6         14           0       -8.237260   -2.318230   -2.476290
      7         14           0       -7.660390    0.157180    3.282940
      8         14           0       -4.374560    1.215250   -0.151210
      9         14           0       -9.495840    2.660700   -1.290350
     10          8           0       -6.072250    0.265870    3.326140
     11          8           0       -8.123860   -1.133320    4.092070
     12          8           0       -8.296530    1.453020    3.951040
     13          8           0      -10.470640    2.065250   -2.398590
     14          8           0       -8.937670    4.073610   -1.765470
     15          8           0      -10.282220    2.837230    0.081690
     16          8           0       -3.023590    0.430250    0.147060
     17          8           0       -4.632420    2.285920    0.998330
     18          8           0       -4.279280    1.950300   -1.559630
     19          8           0       -8.985610   -3.712800   -2.307970
     20          8           0       -6.755230   -2.567950   -2.999900
     21          8           0       -9.023710   -1.410240   -3.520740
     22          1           0       -8.510820    2.280770    3.842050
     23          1           0       -8.188960   -1.991720    4.091150
     24          1           0      -11.050170    2.952400    0.454290
     25          1           0       -8.243830    4.515540   -2.021340
     26          1           0      -10.540320    1.780530   -3.208520
     27          1           0       -5.326330   -0.163590    3.349440
     28          1           0       -5.072680    2.470720    1.715170
     29          1           0       -2.220800    0.485580    0.453790
     30          1           0       -4.402800    1.883130   -2.409630
     31          1           0       -5.918570   -2.405620   -2.874860
     32          1           0       -8.900780   -4.553300   -2.140030
     33          1           0       -9.623870   -0.801830   -3.628590
 ---------------------------------------------------------------------
                    Distance matrix (angstroms):
                    1          2          3          4          5
     1  Zr   0.000000
     2  O    1.983474   0.000000
     3  O    1.986129   3.189367   0.000000
     4  O    1.987204   3.219824   3.274817   0.000000
     5  O    1.986396   3.255682   3.240416   3.273742   0.000000
     6  Si   3.411797   4.313466   4.222032   4.862832   1.590230
     7  Si   3.412588   4.029633   4.647907   1.591424   4.714535
     8  Si   3.397456   1.588834   4.036314   4.397576   4.802810
     9  Si   3.434529   4.749297   1.588853   4.247457   4.443737
    10  O    3.770021   3.535038   5.114033   2.604329   5.210027
    11  O    4.420783   5.136611   5.873269   2.600683   5.182623
    12  O    4.368713   5.091279   5.026066   2.597821   5.866405
    13  O    4.191395   5.677466   2.593821   5.183608   4.505373
    14  O    4.541140   5.362652   2.593998   5.420222   5.743169
    15  O    3.883280   5.388679   2.592174   3.899301   5.025340
    16  O    4.570511   2.599832   5.533827   5.393188   5.659292
    17  O    3.851865   2.582677   4.238870   4.243639   5.633359
    18  O    4.055092   2.592378   4.039960   5.452912   5.275914
    19  O    4.585427   5.597650   5.561128   5.609571   2.599091
    20  O    3.981106   4.118846   4.893171   5.617398   2.591088
    21  O    3.975087   5.053813   4.000049   5.559086   2.598127
    22  H    4.642065   5.385671   4.956810   3.067856   6.255418
    23  H    4.733441   5.452402   6.325099   3.085151   5.179268
    24  H    4.558493   6.146759   3.415680   4.313022   5.577723
    25  H    4.883598   5.394425   3.007284   5.865334   6.165542
    26  H    4.610194   6.015949   3.114019   5.791539   4.630001
    27  H    4.144734   3.553164   5.620659   3.241489   5.444530
    28  H    3.927554   3.003688   4.323811   3.920385   5.809779
    29  H    5.398282   3.442295   6.357184   6.091469   6.481259
    30  H    4.307502   3.042287   4.107078   5.910156   5.288847
    31  H    4.047645   3.762710   5.037778   5.708886   3.004003
    32  H    5.210146   6.111732   6.337884   6.083752   3.245911
    33  H    4.150175   5.400855   3.798062   5.662595   3.040259
                    6          7          8          9         10
     6  Si   0.000000
     7  Si   6.295170   0.000000
     8  Si   5.728170   4.869248   0.000000
     9  Si   5.270695   5.527338   5.441918   0.000000
    10  O    6.710666   1.592441   3.984399   6.226408   0.000000
    11  O    6.675345   1.592133   6.130127   6.726616   2.598747
    12  O    7.452276   1.590671   5.680391   5.510808   2.597546
    13  O    4.920256   6.619518   6.552512   1.591538   7.440170
    14  O    6.469270   6.515851   5.621213   1.591731   6.973809
    15  O    6.107691   4.929976   6.130702   1.591242   5.904422
    16  O    6.451237   5.604304   1.590695   6.995075   4.407709
    17  O    6.801915   4.349664   1.591939   5.388077   3.401825
    18  O    5.892896   6.172331   1.591548   5.271592   5.470173
    19  O    1.591598   6.927570   7.085130   6.474364   7.487368
    20  O    1.591521   6.907947   5.300493   6.145916   6.965327
    21  O    1.591799   7.113755   6.313598   4.665844   7.642004
    22  H    7.819658   2.354882   5.847231   5.239861   3.205091
    23  H    6.575729   2.355920   6.544610   7.232806   3.187854
    24  H    6.654345   5.225431   6.924456   2.354740   6.343867
    25  H    6.848900   6.889927   5.418538   2.354210   7.167356
    26  H    4.758159   7.284800   6.905308   2.354785   8.059753
    27  H    6.859673   2.356937   3.880930   6.847560   0.861032
    28  H    7.107527   3.808755   2.355197   5.351036   2.907873
    29  H    7.255654   6.140120   2.353110   7.790981   4.809609
    30  H    5.688493   6.782046   2.355275   5.272235   6.188833
    31  H    2.354319   6.893503   4.786746   6.401182   6.753731
    32  H    2.355603   7.289430   7.597252   7.288199   7.816904
    33  H    2.355834   7.248738   6.611811   4.180056   7.881767
                   11         12         13         14         15
    11  O    0.000000
    12  O    2.595931   0.000000
    13  O    7.607029   6.739390   0.000000
    14  O    7.879415   6.321158   2.604678   0.000000
    15  O    6.042097   4.564085   2.604466   2.597778   0.000000
    16  O    6.634803   6.581810   8.038166   7.204734   7.647584
    17  O    5.783821   4.778904   6.758149   5.419373   5.750166
    18  O    7.498748   6.837622   6.249000   5.123613   6.286165
    19  O    6.953908   8.144675   5.966522   7.805433   7.091866
    20  O    7.363922   8.176758   5.969287   7.099097   7.152050
    21  O    7.670808   8.034584   3.928340   5.758558   5.709847
    22  H    3.445034   0.861957   6.544687   5.902606   4.193783
    23  H    0.860866   3.449266   7.986351   8.464561   6.616363
    24  H    6.204018   4.696588   3.043323   3.262990   0.861303
    25  H    8.324530   6.712014   3.332405   0.861502   3.375573
    26  H    8.223650   7.510070   0.861340   3.147872   3.465359
    27  H    3.052548   3.434740   8.029415   7.560287   6.651613
    28  H    5.286630   4.053151   6.798926   5.442633   5.471919
    29  H    7.120677   7.076807   8.870811   7.931924   8.405665
    30  H    8.075727   7.470224   6.070582   5.077223   6.456358
    31  H    7.417558   8.193699   6.398191   7.233680   7.434387
    32  H    7.151149   8.575671   6.807093   8.635116   7.839920
    33  H    7.872008   8.018539   3.232656   5.264219   5.238546
                   16         17         18         19         20
    16  O    0.000000
    17  O    2.599328   0.000000
    18  O    2.607700   2.603941   0.000000
    19  O    7.664054   8.115819   7.401369   0.000000
    20  O    5.728673   6.637185   5.349700   2.600777   0.000000
    21  O    7.269223   7.305273   6.135862   2.602700   2.599532
    22  H    6.869284   4.809237   6.869737   8.600643   8.567640
    23  H    6.935621   6.364960   7.921896   6.674242   7.257452
    24  H    8.419122   6.475159   7.134776   7.504491   7.800782
    25  H    6.974415   5.208829   4.744606   8.266679   7.304063
    26  H    8.341727   7.270233   6.476749   5.779688   5.768857
    27  H    3.988796   3.465448   5.446450   7.615347   6.938070
    28  H    3.289568   0.861301   3.409492   8.350605   7.102891
    29  H    0.861172   3.058375   3.230573   8.427121   6.466303
    30  H    3.248037   3.439354   0.861550   7.233735   5.068970
    31  H    5.055202   6.218226   4.836439   3.381837   0.861386
    32  H    8.037905   8.651192   7.999496   0.861301   3.047027
    33  H    7.703068   7.473765   6.357630   3.259626   3.426883
                   21         22         23         24         25
    21  O    0.000000
    22  H    8.252108   0.000000
    23  H    7.679570   4.291831   0.000000
    24  H    6.240195   4.286759   6.771824   0.000000
    25  H    6.162084   6.280511   8.928044   4.055576   0.000000
    26  H    3.546632   7.353887   8.546575   3.879356   3.763448
    27  H    7.900894   4.044569   3.476614   7.131173   7.697489
    28  H    7.621499   4.047284   5.938843   6.127987   5.310272
    29  H    8.103740   7.366639   7.415277   9.167496   7.657920
    30  H    5.782185   7.491158   8.462246   7.316618   4.672672
    31  H    3.324129   8.590628   7.338343   8.131724   7.351040
    32  H    3.435156   9.090757   6.774657   8.227144   9.093378
    33  H    0.861386   8.157927   7.941611   5.726996   5.723826
                   26         27         28         29         30
    26  H    0.000000
    27  H    8.600705   0.000000
    28  H    7.390140   3.110429   0.000000
    29  H    9.181711   4.295408   3.696631   0.000000
    30  H    6.190146   6.181331   4.219950   3.861793   0.000000
    31  H    6.244658   6.642240   6.750007   5.754342   4.572458
    32  H    6.629266   7.885463   8.879965   8.760157   7.856980
    33  H    2.772169   8.220043   7.744591   8.551532   5.996203
                   31         32         33
    31  H    0.000000
    32  H    3.747810   0.000000
    33  H    4.107250   4.100268   0.000000
 Stoichiometry    H12O16Si4Zr
 Framework group  C1[X(H12O16Si4Zr)]
 Deg. of freedom    93
 Full point group                 C1      NOp   1
 Largest Abelian subgroup         C1      NOp   1
 Largest concise Abelian subgroup C1      NOp   1
                         Standard orientation:                         
 ---------------------------------------------------------------------
 Center     Atomic      Atomic             Coordinates (Angstroms)
 Number     Number       Type             X           Y           Z
 ---------------------------------------------------------------------
      1         40           0        0.119682   -0.129861   -0.277553
      2          8           0       -0.731112   -1.455440    0.927917
      3          8           0        0.738111    1.374598    0.862121
      4          8           0       -1.238561    0.483474   -1.592078
      5          8           0        1.681591   -0.942725   -1.197043
      6         14           0        3.129045   -1.569082   -0.993609
      7         14           0       -2.766658    0.381946   -2.024795
      8         14           0       -1.587490   -1.615173    2.256637
      9         14           0        1.143993    2.907939    0.954742
     10          8           0       -3.520338   -0.670157   -1.096941
     11          8           0       -2.860478   -0.089682   -3.542573
     12          8           0       -3.455735    1.807645   -1.873838
     13          8           0        2.686777    3.065871    0.597155
     14          8           0        0.875974    3.434416    2.432780
     15          8           0        0.263324    3.745341   -0.072502
     16          8           0       -2.182934   -3.088017    2.337183
     17          8           0       -2.779646   -0.560755    2.221465
     18          8           0       -0.656579   -1.333038    3.516330
     19          8           0        3.733943   -1.981853   -2.406727
     20          8           0        3.011883   -2.857477   -0.066651
     21          8           0        4.077674   -0.497642   -0.296512
     22          1           0       -3.523535    2.521056   -1.394862
     23          1           0       -2.569668   -0.637512   -4.139567
     24          1           0        0.242352    4.414518   -0.614354
     25          1           0        0.659672    3.216819    3.237795
     26          1           0        3.491620    2.827217    0.789975
     27          1           0       -3.730225   -1.496554   -0.976973
     28          1           0       -3.255355   -0.038209    1.729038
     29          1           0       -2.806014   -3.587475    2.659565
     30          1           0        0.139081   -1.387247    3.842299
     31          1           0        2.495886   -3.327495    0.438142
     32          1           0        3.811306   -2.605153   -2.996094
     33          1           0        4.241997    0.339173   -0.175164
 ---------------------------------------------------------------------
 Rotational constants (GHZ):           0.1767219           0.1410086           0.1319694
 General basis read from cards:  (5D, 7F)
 ======================================================================================================
                                       Pseudopotential Parameters
 ======================================================================================================
  Center     Atomic      Valence      Angular      Power
  Number     Number     Electrons     Momentum     of R      Exponent        Coefficient   SO-Coeffient
 ======================================================================================================
    1         40           12
                                      F and up 
                                                     0      645.9321873       -0.04258430    0.00000000
                                                     1      134.7547401      -20.22224090    0.00000000
                                                     2       42.3074619     -101.86951720    0.00000000
                                                     2       12.0003227      -41.61957840    0.00000000
                                                     2        4.1260454       -4.69861600    0.00000000
                                      S - F
                                                     0      117.6251862        2.79105590    0.00000000
                                                     1       22.9646089       41.94894590    0.00000000
                                                     2        4.5225298       67.72718660    0.00000000
                                      P - F
                                                     0       47.1953145        4.99111440    0.00000000
                                                     1       48.0356033       20.71931720    0.00000000
                                                     2       19.4541456      195.58677580    0.00000000
                                                     2        4.0512875       48.28771760    0.00000000
                                      D - F
                                                     0       79.9073983        3.00492260    0.00000000
                                                     1       45.8263798       25.93779890    0.00000000
                                                     2       26.9903522      125.12449340    0.00000000
                                                     2        9.6835718       70.76340220    0.00000000
                                                     2        2.7995666       15.04928220    0.00000000
    2          8
                                   No pseudopotential on this center.
    3          8
                                   No pseudopotential on this center.
    4          8
                                   No pseudopotential on this center.
    5          8
                                   No pseudopotential on this center.
    6         14
                                   No pseudopotential on this center.
    7         14
                                   No pseudopotential on this center.
    8         14
                                   No pseudopotential on this center.
    9         14
                                   No pseudopotential on this center.
   10          8
                                   No pseudopotential on this center.
   11          8
                                   No pseudopotential on this center.
   12          8
                                   No pseudopotential on this center.
   13          8
                                   No pseudopotential on this center.
   14          8
                                   No pseudopotential on this center.
   15          8
                                   No pseudopotential on this center.
   16          8
                                   No pseudopotential on this center.
   17          8
                                   No pseudopotential on this center.
   18          8
                                   No pseudopotential on this center.
   19          8
                                   No pseudopotential on this center.
   20          8
                                   No pseudopotential on this center.
   21          8
                                   No pseudopotential on this center.
   22          1
                                   No pseudopotential on this center.
   23          1
                                   No pseudopotential on this center.
   24          1
                                   No pseudopotential on this center.
   25          1
                                   No pseudopotential on this center.
   26          1
                                   No pseudopotential on this center.
   27          1
                                   No pseudopotential on this center.
   28          1
                                   No pseudopotential on this center.
   29          1
                                   No pseudopotential on this center.
   30          1
                                   No pseudopotential on this center.
   31          1
                                   No pseudopotential on this center.
   32          1
                                   No pseudopotential on this center.
   33          1
                                   No pseudopotential on this center.
 ======================================================================================================
 There are   400 symmetry adapted cartesian basis functions of A   symmetry.
 There are   378 symmetry adapted basis functions of A   symmetry.
   378 basis functions,   789 primitive gaussians,   400 cartesian basis functions
   104 alpha electrons      104 beta electrons
       nuclear repulsion energy      2797.5056507270 Hartrees.
 NAtoms=   33 NActive=   33 NUniq=   33 SFac= 1.00D+00 NAtFMM=   60 NAOKFM=F Big=F
 Integral buffers will be    131072 words long.
 Raffenetti 2 integral format.
 Two-electron integral symmetry is turned on.
 One-electron integrals computed using PRISM.
   1 Symmetry operations used in ECPInt.
 ECPInt:  NShTT=    8256 NPrTT=   52150 LenC2=    6504 LenP2D=   23407.
 LDataN:  DoStor=T MaxTD1= 5 Len=  102
 NBasis=   378 RedAO= T EigKep=  9.97D-03  NBF=   378
 NBsUse=   378 1.00D-06 EigRej= -1.00D+00 NBFU=   378
 Defaulting to unpruned grid for atomic number  40.
 ExpMin= 2.43D-02 ExpMax= 1.61D+04 ExpMxC= 2.43D+03 IAcc=3 IRadAn=         5 AccDes= 0.00D+00
 Harris functional with IExCor=  402 and IRadAn=       5 diagonalized for initial guess.
 HarFok:  IExCor=  402 AccDes= 0.00D+00 IRadAn=         5 IDoV= 1 UseB2=F ITyADJ=14
 ICtDFT=  3500011 ScaDFX=  1.000000  1.000000  1.000000  1.000000
 Defaulting to unpruned grid for atomic number  40.
 FoFCou: FMM=F IPFlag=           0 FMFlag=      100000 FMFlg1=           0
         NFxFlg=           0 DoJE=T BraDBF=F KetDBF=T FulRan=T
         wScrn=  0.000000 ICntrl=       500 IOpCl=  0 I1Cent=   200000004 NGrid=           0
         NMat0=    1 NMatS0=      1 NMatT0=    0 NMatD0=    1 NMtDS0=    0 NMtDT0=    0
 Petite list used in FoFCou.
 Requested convergence on RMS density matrix=1.00D-08 within 128 cycles.
 Requested convergence on MAX density matrix=1.00D-06.
 Requested convergence on             energy=1.00D-06.
 No special actions if energy rises.
 Defaulting to unpruned grid for atomic number  40.
 Defaulting to unpruned grid for atomic number  40.
 Defaulting to unpruned grid for atomic number  40.
 Defaulting to unpruned grid for atomic number  40.
 Defaulting to unpruned grid for atomic number  40.
 Defaulting to unpruned grid for atomic number  40.
 Defaulting to unpruned grid for atomic number  40.
 Defaulting to unpruned grid for atomic number  40.
 Defaulting to unpruned grid for atomic number  40.
 Defaulting to unpruned grid for atomic number  40.
 Defaulting to unpruned grid for atomic number  40.
 Defaulting to unpruned grid for atomic number  40.
 Defaulting to unpruned grid for atomic number  40.
 Defaulting to unpruned grid for atomic number  40.
 Defaulting to unpruned grid for atomic number  40.
 Defaulting to unpruned grid for atomic number  40.
 SCF Done:  E(RB3LYP) =  -2416.15661515     A.U. after   14 cycles
            NFock= 14  Conv=0.26D-08     -V/T= 2.0169

 **********************************************************************

            Population analysis using the SCF Density.

 **********************************************************************

 Orbital symmetries:
       Occupied  (A) (A) (A) (A) (A) (A) (A) (A) (A) (A) (A) (A)
                 (A) (A) (A) (A) (A) (A) (A) (A) (A) (A) (A) (A)
                 (A) (A) (A) (A) (A) (A) (A) (A) (A) (A) (A) (A)
                 (A) (A) (A) (A) (A) (A) (A) (A) (A) (A) (A) (A)
                 (A) (A) (A) (A) (A) (A) (A) (A) (A) (A) (A) (A)
                 (A) (A) (A) (A) (A) (A) (A) (A) (A) (A) (A) (A)
                 (A) (A) (A) (A) (A) (A) (A) (A) (A) (A) (A) (A)
                 (A) (A) (A) (A) (A) (A) (A) (A) (A) (A) (A) (A)
                 (A) (A) (A) (A) (A) (A) (A) (A)
       Virtual   (A) (A) (A) (A) (A) (A) (A) (A) (A) (A) (A) (A)
                 (A) (A) (A) (A) (A) (A) (A) (A) (A) (A) (A) (A)
                 (A) (A) (A) (A) (A) (A) (A) (A) (A) (A) (A) (A)
                 (A) (A) (A) (A) (A) (A) (A) (A) (A) (A) (A) (A)
                 (A) (A) (A) (A) (A) (A) (A) (A) (A) (A) (A) (A)
                 (A) (A) (A) (A) (A) (A) (A) (A) (A) (A) (A) (A)
                 (A) (A) (A) (A) (A) (A) (A) (A) (A) (A) (A) (A)
                 (A) (A) (A) (A) (A) (A) (A) (A) (A) (A) (A) (A)
                 (A) (A) (A) (A) (A) (A) (A) (A) (A) (A) (A) (A)
                 (A) (A) (A) (A) (A) (A) (A) (A) (A) (A) (A) (A)
                 (A) (A) (A) (A) (A) (A) (A) (A) (A) (A) (A) (A)
                 (A) (A) (A) (A) (A) (A) (A) (A) (A) (A) (A) (A)
                 (A) (A) (A) (A) (A) (A) (A) (A) (A) (A) (A) (A)
                 (A) (A) (A) (A) (A) (A) (A) (A) (A) (A) (A) (A)
                 (A) (A) (A) (A) (A) (A) (A) (A) (A) (A) (A) (A)
                 (A) (A) (A) (A) (A) (A) (A) (A) (A) (A) (A) (A)
                 (A) (A) (A) (A) (A) (A) (A) (A) (A) (A) (A) (A)
                 (A) (A) (A) (A) (A) (A) (A) (A) (A) (A) (A) (A)
                 (A) (A) (A) (A) (A) (A) (A) (A) (A) (A) (A) (A)
                 (A) (A) (A) (A) (A) (A) (A) (A) (A) (A) (A) (A)
                 (A) (A) (A) (A) (A) (A) (A) (A) (A) (A) (A) (A)
                 (A) (A) (A) (A) (A) (A) (A) (A) (A) (A) (A) (A)
                 (A) (A) (A) (A) (A) (A) (A) (A) (A) (A)
 The electronic state is 1-A.
 Alpha  occ. eigenvalues --  -66.18584 -66.18457 -66.18393 -66.18224 -19.12817
 Alpha  occ. eigenvalues --  -19.12714 -19.12550 -19.12510 -19.12451 -19.12329
 Alpha  occ. eigenvalues --  -19.12327 -19.12063 -19.12024 -19.12024 -19.11978
 Alpha  occ. eigenvalues --  -19.11769 -19.11737 -19.11692 -19.11636 -19.11621
 Alpha  occ. eigenvalues --   -5.32908  -5.32753  -5.32702  -5.32525  -3.68901
 Alpha  occ. eigenvalues --   -3.68860  -3.68807  -3.68800  -3.68794  -3.68709
 Alpha  occ. eigenvalues --   -3.68599  -3.68596  -3.68562  -3.68557  -3.68466
 Alpha  occ. eigenvalues --   -3.68399  -2.07222  -1.27679  -1.27626  -1.27555
 Alpha  occ. eigenvalues --   -1.03768  -1.03521  -1.03375  -1.03268  -1.00994
 Alpha  occ. eigenvalues --   -1.00664  -1.00532  -1.00525  -1.00504  -1.00373
 Alpha  occ. eigenvalues --   -1.00245  -1.00148  -0.95089  -0.94155  -0.93927
 Alpha  occ. eigenvalues --   -0.93612  -0.63447  -0.63396  -0.63209  -0.63143
 Alpha  occ. eigenvalues --   -0.56435  -0.56427  -0.56322  -0.55682  -0.55618
 Alpha  occ. eigenvalues --   -0.55053  -0.54875  -0.54678  -0.45745  -0.45535
 Alpha  occ. eigenvalues --   -0.45003  -0.44864  -0.38564  -0.38212  -0.37777
 Alpha  occ. eigenvalues --   -0.37306  -0.37084  -0.36817  -0.36368  -0.35975
 Alpha  occ. eigenvalues --   -0.35897  -0.35722  -0.35432  -0.34992  -0.34944
 Alpha  occ. eigenvalues --   -0.34859  -0.34435  -0.34351  -0.34222  -0.34097
 Alpha  occ. eigenvalues --   -0.33691  -0.33620  -0.31748  -0.31002  -0.30893
 Alpha  occ. eigenvalues --   -0.30545  -0.30164  -0.29978  -0.29942  -0.29896
 Alpha  occ. eigenvalues --   -0.29693  -0.29438  -0.29347  -0.29127
 Alpha virt. eigenvalues --   -0.02721  -0.02301   0.00148   0.00481   0.01003
 Alpha virt. eigenvalues --    0.01204   0.01518   0.02203   0.02527   0.07972
 Alpha virt. eigenvalues --    0.09883   0.09920   0.10365   0.10769   0.11552
 Alpha virt. eigenvalues --    0.12517   0.13407   0.14243   0.14704   0.16132
 Alpha virt. eigenvalues --    0.16578   0.17395   0.18309   0.18514   0.18863
 Alpha virt. eigenvalues --    0.19740   0.20205   0.20444   0.20551   0.20981
 Alpha virt. eigenvalues --    0.21202   0.21490   0.22427   0.22802   0.23287
 Alpha virt. eigenvalues --    0.24792   0.26138   0.26900   0.27625   0.28840
 Alpha virt. eigenvalues --    0.29229   0.30656   0.31306   0.31964   0.32885
 Alpha virt. eigenvalues --    0.33329   0.34798   0.35697   0.36234   0.37022
 Alpha virt. eigenvalues --    0.37485   0.38268   0.38803   0.39372   0.40205
 Alpha virt. eigenvalues --    0.41174   0.42163   0.42931   0.43620   0.45880
 Alpha virt. eigenvalues --    0.46306   0.61643   0.62889   0.63408   0.63937
 Alpha virt. eigenvalues --    0.64707   0.65117   0.65540   0.66393   0.84047
 Alpha virt. eigenvalues --    0.84446   0.84998   0.85281   0.85611   0.87183
 Alpha virt. eigenvalues --    0.87402   0.87568   0.88135   0.89698   0.90009
 Alpha virt. eigenvalues --    0.90423   0.91725   0.92139   0.92939   0.93324
 Alpha virt. eigenvalues --    0.93780   0.94679   0.94743   0.95444   0.96050
 Alpha virt. eigenvalues --    0.96497   0.97916   0.98552   0.98561   0.99662
 Alpha virt. eigenvalues --    1.00426   1.00845   1.01447   1.02083   1.02583
 Alpha virt. eigenvalues --    1.03670   1.04557   1.04980   1.05734   1.06362
 Alpha virt. eigenvalues --    1.06796   1.07286   1.08516   1.09251   1.11443
 Alpha virt. eigenvalues --    1.11778   1.12932   1.13455   1.13541   1.14105
 Alpha virt. eigenvalues --    1.14725   1.15253   1.15638   1.16339   1.16930
 Alpha virt. eigenvalues --    1.17120   1.20217   1.20806   1.22053   1.25393
 Alpha virt. eigenvalues --    1.26152   1.26829   1.27919   1.28533   1.29839
 Alpha virt. eigenvalues --    1.29947   1.30428   1.31655   1.31759   1.32470
 Alpha virt. eigenvalues --    1.33086   1.34514   1.34827   1.35264   1.36132
 Alpha virt. eigenvalues --    1.36761   1.41340   1.43040   1.43696   1.44622
 Alpha virt. eigenvalues --    1.45670   1.46743   1.47769   1.50065   1.51594
 Alpha virt. eigenvalues --    1.56299   1.57673   1.60212   1.60324   1.61307
 Alpha virt. eigenvalues --    1.62186   1.63893   1.64406   1.65478   1.66081
 Alpha virt. eigenvalues --    1.66432   1.67691   1.67910   1.68592   1.69131
 Alpha virt. eigenvalues --    1.70136   1.71222   1.71493   1.74130   1.75772
 Alpha virt. eigenvalues --    1.76065   1.76238   1.76631   1.77306   1.77665
 Alpha virt. eigenvalues --    1.78046   1.78377   1.78775   1.78781   1.79039
 Alpha virt. eigenvalues --    1.79285   1.79637   1.80024   1.80415   1.80832
 Alpha virt. eigenvalues --    1.82176   1.82602   1.82738   1.83835   1.84398
 Alpha virt. eigenvalues --    1.84856   1.86576   1.87767   1.90641   1.92018
 Alpha virt. eigenvalues --    1.93020   1.94341   1.97361   1.97821   1.98881
 Alpha virt. eigenvalues --    2.01577   2.04083   2.04821   2.05756   2.07656
 Alpha virt. eigenvalues --    2.08713   2.09736   2.10713   2.11311   2.25468
 Alpha virt. eigenvalues --    2.26115   2.28603   2.30370   2.31491   2.32129
 Alpha virt. eigenvalues --    2.32737   2.33559   2.34397   2.36364   2.36721
 Alpha virt. eigenvalues --    2.38246   2.59862   2.60275   2.60980   2.61186
 Alpha virt. eigenvalues --    2.63662   2.64062   2.65278   2.65796   2.68079
 Alpha virt. eigenvalues --    2.69048   2.70117   2.70375   2.71695   2.73670
 Alpha virt. eigenvalues --    2.74425   2.75073   2.76373   2.76544   2.76921
 Alpha virt. eigenvalues --    2.77963   2.80183   2.80650   2.80777   2.83146
 Alpha virt. eigenvalues --    2.87029   2.87508   2.88028   2.88304   2.93658
 Alpha virt. eigenvalues --    2.94977   2.95354   2.97266   3.00124   3.00417
 Alpha virt. eigenvalues --    3.00627   3.02319   3.02907   3.03141   3.03920
 Alpha virt. eigenvalues --    3.04482   3.70324   3.72862   3.74375   3.75514
 Alpha virt. eigenvalues --    3.76079   3.77395   3.79062   3.80113   3.82661
 Alpha virt. eigenvalues --    3.83128   3.83781   3.85826   5.10806
          Condensed to atoms (all electrons):
               1          2          3          4          5          6
     1  Zr   9.744007   0.197632   0.195552   0.194413   0.191443  -0.016646
     2  O    0.197632   8.257604   0.000717   0.001008   0.000838  -0.002941
     3  O    0.195552   0.000717   8.255835   0.000957   0.000774  -0.002687
     4  O    0.194413   0.001008   0.000957   8.256528   0.000821   0.000204
     5  O    0.191443   0.000838   0.000774   0.000821   8.262857   0.337572
     6  Si  -0.016646  -0.002941  -0.002687   0.000204   0.337572  11.409200
     7  Si  -0.021979  -0.003474  -0.000714   0.339041  -0.000513  -0.000379
     8  Si  -0.009704   0.336895  -0.002718  -0.002435   0.000029  -0.000631
     9  Si  -0.022148  -0.000303   0.341709  -0.002493  -0.001677  -0.000396
    10  O    0.022146  -0.000658   0.000000  -0.021653   0.000000   0.000006
    11  O   -0.000657   0.000001  -0.000000  -0.021348   0.000000  -0.000004
    12  O    0.002233   0.000001   0.000000  -0.021875   0.000000  -0.000000
    13  O    0.007134   0.000000  -0.021920   0.000001  -0.000004  -0.000865
    14  O   -0.000053   0.000000  -0.021907   0.000000   0.000000  -0.000001
    15  O    0.023786   0.000000  -0.019401  -0.000169   0.000001   0.000025
    16  O    0.003723  -0.016843  -0.000000   0.000000   0.000000  -0.000006
    17  O    0.019377  -0.023746  -0.000032  -0.000038  -0.000000  -0.000005
    18  O    0.010505  -0.022863  -0.000074   0.000000   0.000000  -0.000017
    19  O    0.001046   0.000000   0.000000   0.000000  -0.020490   0.424760
    20  O    0.014568  -0.000080   0.000001   0.000000  -0.023125   0.398249
    21  O    0.016846   0.000001  -0.000103   0.000000  -0.022830   0.397012
    22  H    0.000007  -0.000000   0.000001   0.000670  -0.000000  -0.000000
    23  H   -0.000204  -0.000000  -0.000000   0.000569   0.000001   0.000000
    24  H   -0.001288  -0.000000   0.000702   0.000018   0.000000   0.000001
    25  H   -0.000282   0.000001   0.000744  -0.000000  -0.000000  -0.000000
    26  H   -0.000354  -0.000000   0.000629   0.000000   0.000002   0.000079
    27  H    0.000013   0.000249  -0.000000   0.000663   0.000000   0.000000
    28  H   -0.000056   0.000682  -0.000019  -0.000000   0.000000   0.000001
    29  H   -0.000168   0.000567  -0.000000  -0.000000  -0.000000  -0.000000
    30  H    0.000341   0.000827  -0.000003  -0.000000   0.000000   0.000011
    31  H    0.001767   0.000210  -0.000001   0.000000   0.000626  -0.033891
    32  H   -0.000396  -0.000000  -0.000000   0.000000   0.000417  -0.030226
    33  H    0.001252   0.000000   0.000005   0.000000   0.000767  -0.035223
               7          8          9         10         11         12
     1  Zr  -0.021979  -0.009704  -0.022148   0.022146  -0.000657   0.002233
     2  O   -0.003474   0.336895  -0.000303  -0.000658   0.000001   0.000001
     3  O   -0.000714  -0.002718   0.341709   0.000000  -0.000000   0.000000
     4  O    0.339041  -0.002435  -0.002493  -0.021653  -0.021348  -0.021875
     5  O   -0.000513   0.000029  -0.001677   0.000000   0.000000   0.000000
     6  Si  -0.000379  -0.000631  -0.000396   0.000006  -0.000004  -0.000000
     7  Si  11.419384   0.000542  -0.000333   0.365879   0.421028   0.424003
     8  Si   0.000542  11.398540  -0.001081   0.005021   0.000012  -0.000059
     9  Si  -0.000333  -0.001081  11.421490   0.000026  -0.000000  -0.000156
    10  O    0.365879   0.005021   0.000026   7.897090  -0.025889  -0.021776
    11  O    0.421028   0.000012  -0.000000  -0.025889   7.846992  -0.019068
    12  O    0.424003  -0.000059  -0.000156  -0.021776  -0.019068   7.834129
    13  O    0.000004   0.000004   0.400489  -0.000000  -0.000000   0.000000
    14  O    0.000001  -0.000130   0.423088  -0.000000  -0.000000   0.000000
    15  O   -0.000560   0.000015   0.386385   0.000000   0.000000  -0.000003
    16  O   -0.000097   0.417691  -0.000001  -0.000021  -0.000000   0.000000
    17  O    0.001068   0.392711  -0.000135  -0.001121  -0.000000  -0.000000
    18  O    0.000020   0.404140  -0.000267  -0.000000   0.000000  -0.000000
    19  O   -0.000003   0.000000  -0.000002  -0.000000   0.000000   0.000000
    20  O    0.000003  -0.000195   0.000026   0.000000   0.000000  -0.000000
    21  O   -0.000002   0.000020  -0.000347  -0.000000   0.000000   0.000000
    22  H   -0.031848  -0.000015   0.000010  -0.000156   0.000249   0.348543
    23  H   -0.029435   0.000002  -0.000000  -0.000010   0.348722   0.000309
    24  H    0.000043  -0.000000  -0.029699   0.000000   0.000000   0.000000
    25  H   -0.000001   0.000000  -0.029767  -0.000000   0.000000   0.000000
    26  H    0.000000   0.000001  -0.029917   0.000000   0.000000   0.000000
    27  H   -0.027311   0.000497   0.000000   0.345932  -0.000257   0.000276
    28  H    0.001550  -0.032761   0.000028   0.005161   0.000000  -0.000064
    29  H    0.000001  -0.030398  -0.000000  -0.000004  -0.000000  -0.000000
    30  H    0.000002  -0.032363   0.000007   0.000000   0.000000  -0.000000
    31  H    0.000001   0.000088   0.000002  -0.000000   0.000000   0.000000
    32  H    0.000000  -0.000000  -0.000000  -0.000000   0.000000   0.000000
    33  H    0.000000   0.000002   0.000513  -0.000000   0.000000   0.000000
              13         14         15         16         17         18
     1  Zr   0.007134  -0.000053   0.023786   0.003723   0.019377   0.010505
     2  O    0.000000   0.000000   0.000000  -0.016843  -0.023746  -0.022863
     3  O   -0.021920  -0.021907  -0.019401  -0.000000  -0.000032  -0.000074
     4  O    0.000001   0.000000  -0.000169   0.000000  -0.000038   0.000000
     5  O   -0.000004   0.000000   0.000001   0.000000  -0.000000   0.000000
     6  Si  -0.000865  -0.000001   0.000025  -0.000006  -0.000005  -0.000017
     7  Si   0.000004   0.000001  -0.000560  -0.000097   0.001068   0.000020
     8  Si   0.000004  -0.000130   0.000015   0.417691   0.392711   0.404140
     9  Si   0.400489   0.423088   0.386385  -0.000001  -0.000135  -0.000267
    10  O   -0.000000  -0.000000   0.000000  -0.000021  -0.001121  -0.000000
    11  O   -0.000000  -0.000000   0.000000  -0.000000  -0.000000   0.000000
    12  O    0.000000   0.000000  -0.000003   0.000000  -0.000000  -0.000000
    13  O    7.873097  -0.024192  -0.020374   0.000000  -0.000000   0.000000
    14  O   -0.024192   7.845611  -0.022874   0.000000   0.000000   0.000000
    15  O   -0.020374  -0.022874   7.863982  -0.000000   0.000000   0.000000
    16  O    0.000000   0.000000  -0.000000   7.844938  -0.024800  -0.024418
    17  O   -0.000000   0.000000   0.000000  -0.024800   7.879217  -0.018612
    18  O    0.000000   0.000000   0.000000  -0.024418  -0.018612   7.863075
    19  O    0.000000  -0.000000  -0.000000  -0.000000   0.000000  -0.000000
    20  O    0.000000  -0.000000  -0.000000   0.000000   0.000000   0.000000
    21  O   -0.000232   0.000000   0.000000  -0.000000  -0.000000   0.000000
    22  H    0.000000  -0.000000   0.000016  -0.000000  -0.000001  -0.000000
    23  H    0.000000   0.000000   0.000000  -0.000000   0.000000   0.000000
    24  H   -0.000397  -0.000078   0.347278   0.000000  -0.000000   0.000000
    25  H    0.000029   0.347145   0.000246  -0.000000  -0.000000  -0.000000
    26  H    0.345233  -0.000339   0.000466   0.000000  -0.000000  -0.000000
    27  H    0.000000   0.000000   0.000000   0.000012   0.000364   0.000000
    28  H    0.000000  -0.000000  -0.000000   0.000043   0.344872   0.000070
    29  H    0.000000  -0.000000   0.000000   0.347368  -0.000056  -0.000006
    30  H   -0.000000  -0.000000   0.000000  -0.000038   0.000171   0.347849
    31  H    0.000000  -0.000000   0.000000  -0.000001   0.000000  -0.000002
    32  H   -0.000000  -0.000000   0.000000  -0.000000   0.000000  -0.000000
    33  H    0.002260  -0.000000  -0.000001   0.000000   0.000000  -0.000000
              19         20         21         22         23         24
     1  Zr   0.001046   0.014568   0.016846   0.000007  -0.000204  -0.001288
     2  O    0.000000  -0.000080   0.000001  -0.000000  -0.000000  -0.000000
     3  O    0.000000   0.000001  -0.000103   0.000001  -0.000000   0.000702
     4  O    0.000000   0.000000   0.000000   0.000670   0.000569   0.000018
     5  O   -0.020490  -0.023125  -0.022830  -0.000000   0.000001   0.000000
     6  Si   0.424760   0.398249   0.397012  -0.000000   0.000000   0.000001
     7  Si  -0.000003   0.000003  -0.000002  -0.031848  -0.029435   0.000043
     8  Si   0.000000  -0.000195   0.000020  -0.000015   0.000002  -0.000000
     9  Si  -0.000002   0.000026  -0.000347   0.000010  -0.000000  -0.029699
    10  O   -0.000000   0.000000  -0.000000  -0.000156  -0.000010   0.000000
    11  O    0.000000   0.000000   0.000000   0.000249   0.348722   0.000000
    12  O    0.000000  -0.000000   0.000000   0.348543   0.000309   0.000000
    13  O    0.000000   0.000000  -0.000232   0.000000   0.000000  -0.000397
    14  O   -0.000000  -0.000000   0.000000  -0.000000   0.000000  -0.000078
    15  O   -0.000000  -0.000000   0.000000   0.000016   0.000000   0.347278
    16  O   -0.000000   0.000000  -0.000000  -0.000000  -0.000000   0.000000
    17  O    0.000000   0.000000  -0.000000  -0.000001   0.000000  -0.000000
    18  O   -0.000000   0.000000   0.000000  -0.000000   0.000000   0.000000
    19  O    7.833235  -0.023436  -0.021293   0.000000   0.000000   0.000000
    20  O   -0.023436   7.872663  -0.020649   0.000000  -0.000000   0.000000
    21  O   -0.021293  -0.020649   7.866687  -0.000000   0.000000  -0.000000
    22  H    0.000000   0.000000  -0.000000   0.383750  -0.000008   0.000000
    23  H    0.000000  -0.000000   0.000000  -0.000008   0.385835  -0.000000
    24  H    0.000000   0.000000  -0.000000   0.000000  -0.000000   0.384758
    25  H    0.000000  -0.000000   0.000000   0.000000   0.000000  -0.000004
    26  H    0.000000  -0.000000   0.000181  -0.000000   0.000000  -0.000016
    27  H    0.000000  -0.000000   0.000000  -0.000010  -0.000174  -0.000000
    28  H    0.000000  -0.000000   0.000000  -0.000016   0.000000   0.000000
    29  H   -0.000000  -0.000000   0.000000  -0.000000   0.000000  -0.000000
    30  H   -0.000000  -0.000001  -0.000000   0.000000   0.000000  -0.000000
    31  H    0.000354   0.346817  -0.000101   0.000000  -0.000000  -0.000000
    32  H    0.347108  -0.000359   0.000386  -0.000000  -0.000000   0.000000
    33  H   -0.000011   0.000149   0.343043   0.000000  -0.000000  -0.000000
              25         26         27         28         29         30
     1  Zr  -0.000282  -0.000354   0.000013  -0.000056  -0.000168   0.000341
     2  O    0.000001  -0.000000   0.000249   0.000682   0.000567   0.000827
     3  O    0.000744   0.000629  -0.000000  -0.000019  -0.000000  -0.000003
     4  O   -0.000000   0.000000   0.000663  -0.000000  -0.000000  -0.000000
     5  O   -0.000000   0.000002   0.000000   0.000000  -0.000000   0.000000
     6  Si  -0.000000   0.000079   0.000000   0.000001  -0.000000   0.000011
     7  Si  -0.000001   0.000000  -0.027311   0.001550   0.000001   0.000002
     8  Si   0.000000   0.000001   0.000497  -0.032761  -0.030398  -0.032363
     9  Si  -0.029767  -0.029917   0.000000   0.000028  -0.000000   0.000007
    10  O   -0.000000   0.000000   0.345932   0.005161  -0.000004   0.000000
    11  O    0.000000   0.000000  -0.000257   0.000000  -0.000000   0.000000
    12  O    0.000000   0.000000   0.000276  -0.000064  -0.000000  -0.000000
    13  O    0.000029   0.345233   0.000000   0.000000   0.000000  -0.000000
    14  O    0.347145  -0.000339   0.000000  -0.000000  -0.000000  -0.000000
    15  O    0.000246   0.000466   0.000000  -0.000000   0.000000   0.000000
    16  O   -0.000000   0.000000   0.000012   0.000043   0.347368  -0.000038
    17  O   -0.000000  -0.000000   0.000364   0.344872  -0.000056   0.000171
    18  O   -0.000000  -0.000000   0.000000   0.000070  -0.000006   0.347849
    19  O    0.000000   0.000000   0.000000   0.000000  -0.000000  -0.000000
    20  O   -0.000000  -0.000000  -0.000000  -0.000000  -0.000000  -0.000001
    21  O    0.000000   0.000181   0.000000   0.000000   0.000000  -0.000000
    22  H    0.000000  -0.000000  -0.000010  -0.000016  -0.000000   0.000000
    23  H    0.000000   0.000000  -0.000174   0.000000   0.000000   0.000000
    24  H   -0.000004  -0.000016  -0.000000   0.000000  -0.000000  -0.000000
    25  H    0.386608  -0.000068   0.000000   0.000000  -0.000000   0.000000
    26  H   -0.000068   0.393529  -0.000000  -0.000000  -0.000000  -0.000000
    27  H    0.000000  -0.000000   0.381733  -0.000330  -0.000001   0.000000
    28  H    0.000000  -0.000000  -0.000330   0.380412  -0.000080   0.000003
    29  H   -0.000000  -0.000000  -0.000001  -0.000080   0.388068  -0.000024
    30  H    0.000000  -0.000000   0.000000   0.000003  -0.000024   0.387693
    31  H   -0.000000  -0.000000  -0.000000  -0.000000   0.000000  -0.000001
    32  H    0.000000  -0.000000  -0.000000  -0.000000  -0.000000  -0.000000
    33  H   -0.000000   0.000580  -0.000000  -0.000000  -0.000000  -0.000000
              31         32         33
     1  Zr   0.001767  -0.000396   0.001252
     2  O    0.000210  -0.000000   0.000000
     3  O   -0.000001  -0.000000   0.000005
     4  O    0.000000   0.000000   0.000000
     5  O    0.000626   0.000417   0.000767
     6  Si  -0.033891  -0.030226  -0.035223
     7  Si   0.000001   0.000000   0.000000
     8  Si   0.000088  -0.000000   0.000002
     9  Si   0.000002  -0.000000   0.000513
    10  O   -0.000000  -0.000000  -0.000000
    11  O    0.000000   0.000000   0.000000
    12  O    0.000000   0.000000   0.000000
    13  O    0.000000  -0.000000   0.002260
    14  O   -0.000000  -0.000000  -0.000000
    15  O    0.000000   0.000000  -0.000001
    16  O   -0.000001  -0.000000   0.000000
    17  O    0.000000   0.000000   0.000000
    18  O   -0.000002  -0.000000  -0.000000
    19  O    0.000354   0.347108  -0.000011
    20  O    0.346817  -0.000359   0.000149
    21  O   -0.000101   0.000386   0.343043
    22  H    0.000000  -0.000000   0.000000
    23  H   -0.000000  -0.000000  -0.000000
    24  H   -0.000000   0.000000  -0.000000
    25  H   -0.000000   0.000000  -0.000000
    26  H   -0.000000  -0.000000   0.000580
    27  H   -0.000000  -0.000000  -0.000000
    28  H   -0.000000  -0.000000  -0.000000
    29  H    0.000000  -0.000000  -0.000000
    30  H   -0.000001  -0.000000  -0.000000
    31  H    0.384608  -0.000066  -0.000003
    32  H   -0.000066   0.388441  -0.000006
    33  H   -0.000003  -0.000006   0.396487
 Mulliken charges:
               1
     1  Zr   1.426146
     2  O   -0.726325
     3  O   -0.728048
     4  O   -0.724883
     5  O   -0.727511
     6  Si   1.156798
     7  Si   1.144081
     8  Si   1.156279
     9  Si   1.144952
    10  O   -0.569974
    11  O   -0.549781
    12  O   -0.546493
    13  O   -0.560268
    14  O   -0.546270
    15  O   -0.558817
    16  O   -0.547550
    17  O   -0.569234
    18  O   -0.559399
    19  O   -0.541267
    20  O   -0.564630
    21  O   -0.558621
    22  H    0.298808
    23  H    0.294394
    24  H    0.298682
    25  H    0.295351
    26  H    0.289995
    27  H    0.298343
    28  H    0.300505
    29  H    0.294732
    30  H    0.295526
    31  H    0.299593
    32  H    0.294701
    33  H    0.290186
 Sum of Mulliken charges =  -0.00000
 Mulliken charges with hydrogens summed into heavy atoms:
               1
     1  Zr   1.426146
     2  O   -0.726325
     3  O   -0.728048
     4  O   -0.724883
     5  O   -0.727511
     6  Si   1.156798
     7  Si   1.144081
     8  Si   1.156279
     9  Si   1.144952
    10  O   -0.271631
    11  O   -0.255388
    12  O   -0.247684
    13  O   -0.270272
    14  O   -0.250919
    15  O   -0.260136
    16  O   -0.252818
    17  O   -0.268729
    18  O   -0.263874
    19  O   -0.246566
    20  O   -0.265037
    21  O   -0.268435
 Electronic spatial extent (au):  <R**2>=           9929.8023
 Charge=              0.0000 electrons
 Dipole moment (field-independent basis, Debye):
    X=             -0.1218    Y=             -1.1649    Z=              0.9095  Tot=              1.4829
 Quadrupole moment (field-independent basis, Debye-Ang):
   XX=           -154.6202   YY=           -138.7516   ZZ=           -147.0974
   XY=              9.1375   XZ=             -0.1208   YZ=              4.1450
 Traceless Quadrupole moment (field-independent basis, Debye-Ang):
   XX=             -7.7971   YY=              8.0715   ZZ=             -0.2743
   XY=              9.1375   XZ=             -0.1208   YZ=              4.1450
 Octapole moment (field-independent basis, Debye-Ang**2):
  XXX=            -14.9114  YYY=            -20.9613  ZZZ=             -3.9530  XYY=            -34.7435
  XXY=              4.5602  XXZ=             35.4536  XZZ=             40.4077  YZZ=            -44.4189
  YYZ=            -22.4172  XYZ=              2.8800
 Hexadecapole moment (field-independent basis, Debye-Ang**3):
 XXXX=          -5003.6428 YYYY=          -3094.9191 ZZZZ=          -2578.6059 XXXY=            314.1944
 XXXZ=           -138.9972 YYYX=            -41.2066 YYYZ=           -164.2625 ZZZX=             30.1375
 ZZZY=            195.9756 XXYY=          -1180.3077 XXZZ=          -1321.8805 YYZZ=           -875.8436
 XXYZ=             75.7233 YYXZ=           -104.5116 ZZXY=             29.7654
 N-N= 2.797505650727D+03 E-N=-1.131318803540D+04  KE= 2.376082996795D+03
   1 Symmetry operations used in ECPInt.
 ECPInt:  NShTT=    8256 NPrTT=   52150 LenC2=    6504 LenP2D=   23407.
 LDataN:  DoStor=T MaxTD1= 6 Len=  172
 Calling FoFJK, ICntrl=      2127 FMM=F ISym2X=0 I1Cent= 0 IOpClX= 0 NMat=1 NMatS=1 NMatT=0.
 Defaulting to unpruned grid for atomic number  40.
 Defaulting to unpruned grid for atomic number  40.
 Defaulting to unpruned grid for atomic number  40.
 Defaulting to unpruned grid for atomic number  40.
 Defaulting to unpruned grid for atomic number  40.
 Defaulting to unpruned grid for atomic number  40.
 Defaulting to unpruned grid for atomic number  40.
 Defaulting to unpruned grid for atomic number  40.
 Defaulting to unpruned grid for atomic number  40.
 Defaulting to unpruned grid for atomic number  40.
 Defaulting to unpruned grid for atomic number  40.
 Defaulting to unpruned grid for atomic number  40.
 Defaulting to unpruned grid for atomic number  40.
 Defaulting to unpruned grid for atomic number  40.
 Defaulting to unpruned grid for atomic number  40.
 Defaulting to unpruned grid for atomic number  40.
 ***** Axes restored to original set *****
 -------------------------------------------------------------------
 Center     Atomic                   Forces (Hartrees/Bohr)
 Number     Number              X              Y              Z
 -------------------------------------------------------------------
      1       40          -0.000007386    0.000467994    0.001630179
      2        8          -0.043287598   -0.036030745   -0.003573820
      3        8           0.035721482   -0.036964161    0.014925151
      4        8          -0.008257238   -0.002968610   -0.055401838
      5        8           0.004668217    0.032297119    0.048198922
      6       14           0.002282024   -0.010619585   -0.006079684
      7       14          -0.000059847   -0.007551594    0.012701760
      8       14           0.011764031    0.011742468    0.004945898
      9       14          -0.005517599    0.015350628   -0.011025444
     10        8          -0.086514356    0.089330719   -0.004203642
     11        8          -0.002360412    0.126222819    0.025683065
     12        8           0.025398189   -0.120604278    0.040176097
     13        8          -0.021505573    0.031386986    0.116989107
     14        8          -0.112374849   -0.038810077    0.033374884
     15        8           0.119754893   -0.018527218   -0.033146084
     16        8          -0.109528558   -0.036236423   -0.048401019
     17        8           0.075702002    0.001579544   -0.103597280
     18        8           0.025923664    0.036529266    0.117830236
     19        8          -0.038264123    0.118072295   -0.029369877
     20        8          -0.111316079   -0.037921090   -0.041414845
     21        8           0.090196953   -0.087777284   -0.011668879
     22        1          -0.031476536    0.129151554   -0.024760543
     23        1          -0.008870341   -0.136717789   -0.007178821
     24        1          -0.126470936    0.018521422    0.051209620
     25        1           0.115098846    0.063183897   -0.038770151
     26        1          -0.003289507   -0.040717642   -0.130115604
     27        1           0.115460097   -0.076063103    0.003852799
     28        1          -0.074078714    0.020930821    0.115033930
     29        1           0.126625281    0.017401145    0.050121252
     30        1          -0.021830051   -0.017950544   -0.133007155
     31        1           0.131109464    0.031010630    0.025700854
     32        1           0.022365330   -0.132284553    0.026949073
     33        1          -0.097060769    0.094565391   -0.007608140
 -------------------------------------------------------------------
 Cartesian Forces:  Max     0.136717789 RMS     0.065865753

 GradGradGradGradGradGradGradGradGradGradGradGradGradGradGradGradGradGrad
 Berny optimization.
 FormGI is forming the generalized inverse of G from B-inverse, IUseBI=4.
 Internal  Forces:  Max     0.138097645 RMS     0.041991949
 Search for a local minimum.
 Step number   1 out of a maximum of  148
 All quantities printed in internal units (Hartrees-Bohrs-Radians)
 Mixed Optimization -- RFO/linear search
 Second derivative matrix not updated -- first step.
 ITU=  0
     Eigenvalues ---    0.00230   0.00230   0.00230   0.00230   0.04439
     Eigenvalues ---    0.04443   0.04446   0.04448   0.04449   0.04450
     Eigenvalues ---    0.04451   0.04451   0.04451   0.04453   0.04455
     Eigenvalues ---    0.04462   0.04463   0.04468   0.04487   0.04487
     Eigenvalues ---    0.09508   0.10158   0.10757   0.12492   0.12562
     Eigenvalues ---    0.12596   0.12608   0.12665   0.12669   0.12673
     Eigenvalues ---    0.12696   0.12732   0.12757   0.12770   0.12867
     Eigenvalues ---    0.16000   0.16000   0.16000   0.16000   0.16000
     Eigenvalues ---    0.16000   0.16000   0.16000   0.16000   0.16000
     Eigenvalues ---    0.16000   0.16000   0.18714   0.18755   0.18768
     Eigenvalues ---    0.18903   0.19893   0.20184   0.20864   0.20879
     Eigenvalues ---    0.20880   0.20883   0.20896   0.20901   0.20905
     Eigenvalues ---    0.20919   0.25000   0.25000   0.25000   0.25000
     Eigenvalues ---    0.52708   0.52770   0.52809   0.52837   0.52851
     Eigenvalues ---    0.52877   0.52888   0.52890   0.52893   0.52912
     Eigenvalues ---    0.52949   0.53060   0.53065   0.53154   0.53435
     Eigenvalues ---    0.53439   0.83295   0.83445   0.83463   0.83506
     Eigenvalues ---    0.83506   0.83523   0.83537   0.83537   0.83538
     Eigenvalues ---    0.83586   0.83638   0.83700
 RFO step:  Lambda=-2.38160119D-01 EMin= 2.30000000D-03
 Linear search not attempted -- first point.
 Maximum step size (   0.300) exceeded in Quadratic search.
    -- Step size scaled by   0.612
 Iteration  1 RMS(Cart)=  0.03446383 RMS(Int)=  0.00034136
 Iteration  2 RMS(Cart)=  0.00045554 RMS(Int)=  0.00001267
 Iteration  3 RMS(Cart)=  0.00000022 RMS(Int)=  0.00001266
 Variable       Old X    -DE/DX   Delta X   Delta X   Delta X     New X
                                 (Linear)    (Quad)   (Total)
    R1        3.74822  -0.00881   0.00000  -0.01261  -0.01261   3.73561
    R2        3.75324  -0.00743   0.00000  -0.01067  -0.01067   3.74257
    R3        3.75527  -0.00971   0.00000  -0.01396  -0.01396   3.74131
    R4        3.75374  -0.00951   0.00000  -0.01367  -0.01367   3.74008
    R5        3.00246   0.04838   0.00000   0.03831   0.03831   3.04077
    R6        3.00250   0.04694   0.00000   0.03717   0.03717   3.03967
    R7        3.00736   0.04773   0.00000   0.03805   0.03805   3.04541
    R8        3.00510   0.05010   0.00000   0.03982   0.03982   3.04492
    R9        3.00768   0.01967   0.00000   0.01569   0.01569   3.02338
   R10        3.00754   0.02469   0.00000   0.01969   0.01969   3.02723
   R11        3.00806   0.01991   0.00000   0.01589   0.01589   3.02396
   R12        3.00928   0.02976   0.00000   0.02379   0.02379   3.03307
   R13        3.00869   0.02118   0.00000   0.01692   0.01692   3.02561
   R14        3.00593   0.01587   0.00000   0.01263   0.01263   3.01856
   R15        3.00598   0.02414   0.00000   0.01921   0.01921   3.02519
   R16        3.00833   0.02314   0.00000   0.01847   0.01847   3.02680
   R17        3.00759   0.02225   0.00000   0.01775   0.01775   3.02534
   R18        3.00757   0.02782   0.00000   0.02219   0.02219   3.02976
   R19        3.00794   0.02420   0.00000   0.01931   0.01931   3.02725
   R20        3.00701   0.01889   0.00000   0.01506   0.01506   3.02207
   R21        1.62711   0.13807   0.00000   0.07860   0.07860   1.70572
   R22        1.62680   0.13701   0.00000   0.07795   0.07795   1.70475
   R23        1.62886   0.13498   0.00000   0.07709   0.07709   1.70595
   R24        1.62770   0.13608   0.00000   0.07755   0.07755   1.70525
   R25        1.62800   0.13663   0.00000   0.07791   0.07791   1.70591
   R26        1.62763   0.13739   0.00000   0.07829   0.07829   1.70592
   R27        1.62738   0.13701   0.00000   0.07804   0.07804   1.70542
   R28        1.62762   0.13810   0.00000   0.07869   0.07869   1.70632
   R29        1.62809   0.13575   0.00000   0.07742   0.07742   1.70552
   R30        1.62762   0.13655   0.00000   0.07781   0.07781   1.70543
   R31        1.62778   0.13692   0.00000   0.07805   0.07805   1.70583
   R32        1.62778   0.13537   0.00000   0.07716   0.07716   1.70495
    A1        1.86613   0.00190   0.00000   0.00293   0.00293   1.86905
    A2        1.89138   0.00019   0.00000  -0.00005  -0.00006   1.89132
    A3        1.92316  -0.00285   0.00000  -0.00426  -0.00426   1.91890
    A4        1.93757  -0.00158   0.00000  -0.00194  -0.00194   1.93564
    A5        1.90790   0.00169   0.00000   0.00268   0.00268   1.91058
    A6        1.93642   0.00063   0.00000   0.00063   0.00062   1.93705
    A7        2.50925   0.00425   0.00000   0.00533   0.00533   2.51458
    A8        2.57551   0.00381   0.00000   0.00478   0.00478   2.58029
    A9        2.52607   0.00095   0.00000   0.00119   0.00119   2.52726
   A10        2.52815   0.00362   0.00000   0.00454   0.00454   2.53269
   A11        1.91187   0.00157   0.00000   0.00289   0.00288   1.91475
   A12        1.90325   0.00379   0.00000   0.00645   0.00644   1.90969
   A13        1.91065   0.00157   0.00000   0.00230   0.00231   1.91295
   A14        1.91256   0.00064   0.00000   0.00073   0.00069   1.91326
   A15        1.91441  -0.00431   0.00000  -0.00714  -0.00715   1.90726
   A16        1.91103  -0.00322   0.00000  -0.00514  -0.00516   1.90587
   A17        1.91577  -0.00368   0.00000  -0.00421  -0.00424   1.91153
   A18        1.91207   0.00382   0.00000   0.00639   0.00639   1.91846
   A19        1.91025   0.00457   0.00000   0.00573   0.00574   1.91599
   A20        1.90906   0.00792   0.00000   0.01137   0.01134   1.92040
   A21        1.90905  -0.00369   0.00000  -0.00621  -0.00619   1.90286
   A22        1.90757  -0.00900   0.00000  -0.01314  -0.01312   1.89445
   A23        1.91473  -0.00703   0.00000  -0.00949  -0.00949   1.90524
   A24        1.89502   0.00539   0.00000   0.00799   0.00801   1.90303
   A25        1.90586   0.00501   0.00000   0.00719   0.00720   1.91306
   A26        1.91142   0.00288   0.00000   0.00361   0.00362   1.91503
   A27        1.92091   0.00154   0.00000   0.00151   0.00152   1.92243
   A28        1.91569  -0.00777   0.00000  -0.01076  -0.01076   1.90492
   A29        1.90742   0.00555   0.00000   0.00840   0.00838   1.91580
   A30        1.90744   0.00139   0.00000   0.00288   0.00286   1.91030
   A31        1.90589  -0.00302   0.00000  -0.00468  -0.00467   1.90122
   A32        1.91669   0.00062   0.00000   0.00140   0.00137   1.91806
   A33        1.91689  -0.00493   0.00000  -0.00771  -0.00771   1.90918
   A34        1.90943   0.00039   0.00000  -0.00027  -0.00027   1.90916
   A35        2.55109  -0.01352   0.00000  -0.02077  -0.02077   2.53032
   A36        2.54936  -0.01143   0.00000  -0.01756  -0.01756   2.53180
   A37        2.54746  -0.01295   0.00000  -0.01989  -0.01989   2.52757
   A38        2.54631  -0.01398   0.00000  -0.02148  -0.02148   2.52483
   A39        2.54352  -0.01414   0.00000  -0.02173  -0.02173   2.52179
   A40        2.54717  -0.01487   0.00000  -0.02284  -0.02284   2.52433
   A41        2.54419  -0.01426   0.00000  -0.02190  -0.02190   2.52228
   A42        2.54648  -0.01514   0.00000  -0.02326  -0.02326   2.52322
   A43        2.54719  -0.01269   0.00000  -0.01949  -0.01949   2.52770
   A44        2.54875  -0.01458   0.00000  -0.02240  -0.02240   2.52636
   A45        2.54481  -0.01299   0.00000  -0.01996  -0.01996   2.52485
   A46        2.54861  -0.01565   0.00000  -0.02404  -0.02404   2.52457
    D1        0.58740   0.00248   0.00000   0.00716   0.00716   0.59456
    D2       -1.50235   0.00319   0.00000   0.00785   0.00786  -1.49450
    D3        2.65910   0.00405   0.00000   0.00974   0.00974   2.66884
    D4       -2.74588  -0.00131   0.00000  -0.00258  -0.00258  -2.74846
    D5       -0.68611  -0.00081   0.00000  -0.00196  -0.00196  -0.68808
    D6        1.45570   0.00008   0.00000  -0.00064  -0.00064   1.45507
    D7        0.07228   0.00425   0.00000   0.00941   0.00941   0.08169
    D8       -1.97210   0.00273   0.00000   0.00699   0.00699  -1.96511
    D9        2.18584   0.00124   0.00000   0.00449   0.00449   2.19033
   D10       -1.12546  -0.00100   0.00000  -0.00181  -0.00181  -1.12726
   D11        0.92050   0.00065   0.00000   0.00085   0.00085   0.92134
   D12        3.06300   0.00023   0.00000   0.00065   0.00065   3.06365
   D13        2.88455   0.00264   0.00000   0.00535   0.00535   2.88990
   D14        0.79623   0.00003   0.00000   0.00175   0.00178   0.79801
   D15       -1.29206   0.00331   0.00000   0.00583   0.00580  -1.28626
   D16       -1.51012   0.00170   0.00000   0.00210   0.00212  -1.50799
   D17        2.67518  -0.00328   0.00000  -0.00647  -0.00649   2.66869
   D18        0.58708  -0.00278   0.00000  -0.00506  -0.00507   0.58201
   D19       -0.07200   0.00636   0.00000   0.01114   0.01113  -0.06086
   D20       -2.16851  -0.00349   0.00000  -0.00421  -0.00419  -2.17271
   D21        2.02338   0.00240   0.00000   0.00447   0.00446   2.02784
   D22       -3.12397   0.00242   0.00000   0.00395   0.00396  -3.12001
   D23        1.06622  -0.00162   0.00000  -0.00260  -0.00261   1.06361
   D24       -1.02417  -0.00093   0.00000  -0.00162  -0.00162  -1.02580
   D25       -1.57428  -0.00210   0.00000  -0.00369  -0.00369  -1.57798
   D26        0.51301   0.00390   0.00000   0.00642   0.00642   0.51942
   D27        2.61140  -0.00233   0.00000  -0.00388  -0.00388   2.60752
   D28       -0.14929   0.00049   0.00000   0.00080   0.00081  -0.14847
[...]
     6  Si  -0.037820  -0.000444  -0.004981  -0.000886   0.315812  11.474399
     7  Si  -0.023347  -0.002858  -0.000414   0.337375  -0.000422  -0.000820
     8  Si  -0.028457   0.334086  -0.001355  -0.001831  -0.001011  -0.000563
     9  Si  -0.109927  -0.001778   0.343476  -0.005094  -0.006107   0.006140
    10  O    0.016161  -0.000041   0.000000  -0.019310   0.000000  -0.000000
    11  O   -0.000987   0.000000   0.000000  -0.013825   0.000000  -0.000001
    12  O    0.018110  -0.000075  -0.000000  -0.017143  -0.000000  -0.000003
    13  O    0.009221   0.000000  -0.011407   0.000000  -0.000047   0.001049
    14  O    0.000942  -0.000000  -0.014445   0.000000  -0.000000  -0.000128
    15  O    0.114271  -0.000089  -0.042902  -0.002269  -0.006230   0.008053
    16  O    0.008193  -0.017588   0.000000   0.000001   0.000001  -0.000018
    17  O    0.002982  -0.015682   0.000000  -0.000279   0.000000   0.000000
    18  O    0.002620  -0.015718   0.000000   0.000001   0.000000  -0.000000
    19  O    0.016954  -0.000000  -0.000001  -0.000005  -0.017343   0.297044
    20  O   -0.000701   0.000000   0.000000   0.000000  -0.017147   0.408249
    21  O    0.011136   0.000000  -0.000021   0.000000  -0.017592   0.396271
    22  H   -0.003053   0.000104  -0.000001   0.000144  -0.000000  -0.000000
    23  H   -0.000566  -0.000000   0.000000  -0.000162  -0.000000  -0.000000
    24  H   -0.014379   0.000008   0.001192  -0.000148  -0.001172  -0.000705
    25  H   -0.004252   0.000000   0.000205   0.000002  -0.000000   0.000019
    26  H   -0.000516   0.000000  -0.000181  -0.000000   0.000002  -0.000117
    27  H   -0.001257  -0.000002  -0.000000   0.000621   0.000000  -0.000000
    28  H   -0.000312   0.000442  -0.000000  -0.000188   0.000001   0.000002
    29  H   -0.001360   0.000703  -0.000000  -0.000000   0.000000   0.000000
    30  H   -0.000585   0.000981   0.000001   0.000000  -0.000000  -0.000000
    31  H   -0.001455   0.000000  -0.000000  -0.000000   0.001108  -0.023117
    32  H    0.000120  -0.000000   0.000000   0.000005  -0.000038  -0.016857
    33  H   -0.002757   0.000000  -0.000032  -0.000000   0.000402  -0.023401
               7          8          9         10         11         12
     1  Zr  -0.023347  -0.028457  -0.109927   0.016161  -0.000987   0.018110
     2  O   -0.002858   0.334086  -0.001778  -0.000041   0.000000  -0.000075
     3  O   -0.000414  -0.001355   0.343476   0.000000   0.000000  -0.000000
     4  O    0.337375  -0.001831  -0.005094  -0.019310  -0.013825  -0.017143
     5  O   -0.000422  -0.001011  -0.006107   0.000000   0.000000  -0.000000
     6  Si  -0.000820  -0.000563   0.006140  -0.000000  -0.000001  -0.000003
     7  Si  11.455650  -0.001975  -0.001907   0.313254   0.400904   0.369399
     8  Si  -0.001975  11.470207  -0.000664  -0.002555  -0.000021   0.002224
     9  Si  -0.001907  -0.000664  11.572897  -0.000005  -0.000042   0.000027
    10  O    0.313254  -0.002555  -0.000005   8.043901  -0.017707  -0.015957
    11  O    0.400904  -0.000021  -0.000042  -0.017707   7.944417  -0.019506
    12  O    0.369399   0.002224   0.000027  -0.015957  -0.019506   8.015487
    13  O   -0.000000   0.000001   0.334559   0.000000   0.000000  -0.000000
    14  O    0.000002  -0.000001   0.406680   0.000000   0.000000  -0.000000
    15  O   -0.000671  -0.000136   0.266945  -0.000000  -0.000000   0.000000
    16  O   -0.000308   0.383409  -0.000002  -0.000002  -0.000000  -0.000000
    17  O    0.017399   0.343209  -0.000003  -0.014188  -0.000004  -0.011535
    18  O   -0.000506   0.399384  -0.000014  -0.000000  -0.000000   0.000002
    19  O   -0.000000  -0.000001  -0.002716  -0.000000   0.000000  -0.000000
    20  O   -0.000002  -0.000002  -0.000089   0.000000  -0.000000   0.000000
    21  O   -0.000002   0.000004   0.002600   0.000000   0.000000   0.000000
    22  H   -0.020588   0.001544   0.000010  -0.000675   0.000287   0.294755
    23  H   -0.023381  -0.000002  -0.000001   0.000199   0.302793   0.000163
    24  H   -0.000017   0.000011  -0.008244   0.000000  -0.000000   0.000000
    25  H   -0.000003   0.000000  -0.016158   0.000000   0.000000  -0.000000
    26  H    0.000000  -0.000000  -0.017144   0.000000  -0.000000   0.000000
    27  H   -0.018451   0.000159   0.000001   0.303116   0.000020  -0.000731
    28  H    0.001171  -0.018187  -0.000001   0.042693   0.000009   0.000994
    29  H    0.000023  -0.022784   0.000000  -0.000000  -0.000000   0.000000
    30  H   -0.000011  -0.026515   0.000005   0.000000   0.000000  -0.000000
    31  H   -0.000000  -0.000003   0.000009  -0.000000  -0.000000  -0.000000
    32  H    0.000004   0.000000   0.000105   0.000000  -0.000000   0.000000
    33  H   -0.000000   0.000002   0.003459   0.000000   0.000000   0.000000
              13         14         15         16         17         18
     1  Zr   0.009221   0.000942   0.114271   0.008193   0.002982   0.002620
     2  O    0.000000  -0.000000  -0.000089  -0.017588  -0.015682  -0.015718
     3  O   -0.011407  -0.014445  -0.042902   0.000000   0.000000   0.000000
     4  O    0.000000   0.000000  -0.002269   0.000001  -0.000279   0.000001
     5  O   -0.000047  -0.000000  -0.006230   0.000001   0.000000   0.000000
     6  Si   0.001049  -0.000128   0.008053  -0.000018   0.000000  -0.000000
     7  Si  -0.000000   0.000002  -0.000671  -0.000308   0.017399  -0.000506
     8  Si   0.000001  -0.000001  -0.000136   0.383409   0.343209   0.399384
     9  Si   0.334559   0.406680   0.266945  -0.000002  -0.000003  -0.000014
    10  O    0.000000   0.000000  -0.000000  -0.000002  -0.014188  -0.000000
    11  O    0.000000   0.000000  -0.000000  -0.000000  -0.000004  -0.000000
    12  O   -0.000000  -0.000000   0.000000  -0.000000  -0.011535   0.000002
    13  O    8.009330  -0.020537  -0.017329   0.000000   0.000000   0.000000
    14  O   -0.020537   7.915744  -0.011805  -0.000000   0.000000   0.000000
    15  O   -0.017329  -0.011805   8.108082  -0.000000  -0.000000  -0.000000
    16  O    0.000000  -0.000000  -0.000000   7.952022  -0.017638  -0.017017
    17  O    0.000000   0.000000  -0.000000  -0.017638   8.052533  -0.020759
    18  O    0.000000   0.000000  -0.000000  -0.017017  -0.020759   7.938941
    19  O   -0.000096  -0.000000  -0.021941   0.000000  -0.000000   0.000000
    20  O   -0.000000  -0.000000  -0.000003   0.000000   0.000000   0.000000
    21  O   -0.010279  -0.000000  -0.000226   0.000000  -0.000000  -0.000000
    22  H    0.000000   0.000000  -0.000000   0.000006   0.035132  -0.000266
    23  H    0.000000  -0.000000   0.000000  -0.000000   0.000003  -0.000000
    24  H    0.001003  -0.000659   0.271745   0.000000   0.000000   0.000000
    25  H    0.000508   0.303958  -0.000437   0.000000  -0.000000   0.000000
    26  H    0.305163  -0.000548   0.000524  -0.000000   0.000000  -0.000000
    27  H    0.000000   0.000000   0.000000   0.000000   0.000368   0.000000
    28  H    0.000000   0.000000  -0.000000  -0.001549   0.279621   0.000441
    29  H   -0.000000  -0.000000   0.000000   0.301626  -0.000588  -0.001502
    30  H    0.000000   0.000000   0.000000  -0.001366   0.000626   0.302794
    31  H    0.000000   0.000000   0.000002   0.000000  -0.000000   0.000000
    32  H   -0.000001   0.000000   0.000690   0.000000  -0.000000   0.000000
    33  H    0.034152   0.000016  -0.000410   0.000000   0.000000   0.000000
              19         20         21         22         23         24
     1  Zr   0.016954  -0.000701   0.011136  -0.003053  -0.000566  -0.014379
     2  O   -0.000000   0.000000   0.000000   0.000104  -0.000000   0.000008
     3  O   -0.000001   0.000000  -0.000021  -0.000001   0.000000   0.001192
     4  O   -0.000005   0.000000   0.000000   0.000144  -0.000162  -0.000148
     5  O   -0.017343  -0.017147  -0.017592  -0.000000  -0.000000  -0.001172
     6  Si   0.297044   0.408249   0.396271  -0.000000  -0.000000  -0.000705
     7  Si  -0.000000  -0.000002  -0.000002  -0.020588  -0.023381  -0.000017
     8  Si  -0.000001  -0.000002   0.000004   0.001544  -0.000002   0.000011
     9  Si  -0.002716  -0.000089   0.002600   0.000010  -0.000001  -0.008244
    10  O   -0.000000   0.000000   0.000000  -0.000675   0.000199   0.000000
    11  O    0.000000  -0.000000   0.000000   0.000287   0.302793  -0.000000
    12  O   -0.000000   0.000000   0.000000   0.294755   0.000163   0.000000
    13  O   -0.000096  -0.000000  -0.010279   0.000000   0.000000   0.001003
    14  O   -0.000000  -0.000000  -0.000000   0.000000  -0.000000  -0.000659
    15  O   -0.021941  -0.000003  -0.000226  -0.000000   0.000000   0.271745
    16  O    0.000000   0.000000   0.000000   0.000006  -0.000000   0.000000
    17  O   -0.000000   0.000000  -0.000000   0.035132   0.000003   0.000000
    18  O    0.000000   0.000000  -0.000000  -0.000266  -0.000000   0.000000
    19  O    8.059314  -0.018022  -0.019180  -0.000000   0.000000   0.055924
    20  O   -0.018022   7.930138  -0.014859   0.000000  -0.000000   0.000045
    21  O   -0.019180  -0.014859   7.968601   0.000000  -0.000000  -0.000425
    22  H   -0.000000   0.000000   0.000000   0.343857  -0.000054   0.000000
    23  H    0.000000  -0.000000  -0.000000  -0.000054   0.385649   0.000000
    24  H    0.055924   0.000045  -0.000425   0.000000   0.000000   0.318770
    25  H   -0.000000   0.000000   0.000000   0.000000  -0.000000   0.000020
    26  H   -0.000000   0.000000   0.000310  -0.000000   0.000000  -0.000043
    27  H    0.000000   0.000000   0.000000  -0.000007  -0.000075   0.000000
    28  H   -0.000000   0.000000   0.000000  -0.004763  -0.000008  -0.000000
    29  H   -0.000000   0.000000   0.000000  -0.000000   0.000000  -0.000000
    30  H    0.000000  -0.000000  -0.000000  -0.000001  -0.000000   0.000000
    31  H    0.000308   0.302552  -0.000523  -0.000000  -0.000000  -0.000004
    32  H    0.303535  -0.000369   0.000368  -0.000000  -0.000000  -0.002366
    33  H    0.000174   0.000213   0.296662   0.000000  -0.000000  -0.000381
              25         26         27         28         29         30
     1  Zr  -0.004252  -0.000516  -0.001257  -0.000312  -0.001360  -0.000585
     2  O    0.000000   0.000000  -0.000002   0.000442   0.000703   0.000981
     3  O    0.000205  -0.000181  -0.000000  -0.000000  -0.000000   0.000001
     4  O    0.000002  -0.000000   0.000621  -0.000188  -0.000000   0.000000
     5  O   -0.000000   0.000002   0.000000   0.000001   0.000000  -0.000000
     6  Si   0.000019  -0.000117  -0.000000   0.000002   0.000000  -0.000000
     7  Si  -0.000003   0.000000  -0.018451   0.001171   0.000023  -0.000011
     8  Si   0.000000  -0.000000   0.000159  -0.018187  -0.022784  -0.026515
     9  Si  -0.016158  -0.017144   0.000001  -0.000001   0.000000   0.000005
    10  O    0.000000   0.000000   0.303116   0.042693  -0.000000   0.000000
    11  O    0.000000  -0.000000   0.000020   0.000009  -0.000000   0.000000
    12  O   -0.000000   0.000000  -0.000731   0.000994   0.000000  -0.000000
    13  O    0.000508   0.305163   0.000000   0.000000  -0.000000   0.000000
    14  O    0.303958  -0.000548   0.000000   0.000000  -0.000000   0.000000
    15  O   -0.000437   0.000524   0.000000  -0.000000   0.000000   0.000000
    16  O    0.000000  -0.000000   0.000000  -0.001549   0.301626  -0.001366
    17  O   -0.000000   0.000000   0.000368   0.279621  -0.000588   0.000626
    18  O    0.000000  -0.000000   0.000000   0.000441  -0.001502   0.302794
    19  O   -0.000000  -0.000000   0.000000  -0.000000  -0.000000   0.000000
    20  O    0.000000   0.000000   0.000000   0.000000   0.000000  -0.000000
    21  O    0.000000   0.000310   0.000000   0.000000   0.000000  -0.000000
    22  H    0.000000  -0.000000  -0.000007  -0.004763  -0.000000  -0.000001
    23  H   -0.000000   0.000000  -0.000075  -0.000008   0.000000  -0.000000
    24  H    0.000020  -0.000043   0.000000  -0.000000  -0.000000   0.000000
    25  H    0.373931   0.000018  -0.000000   0.000000  -0.000000   0.000000
    26  H    0.000018   0.361600  -0.000000  -0.000000  -0.000000  -0.000000
    27  H   -0.000000  -0.000000   0.377265  -0.001433   0.000000  -0.000000
    28  H    0.000000  -0.000000  -0.001433   0.351633  -0.000041  -0.000008
    29  H   -0.000000  -0.000000   0.000000  -0.000041   0.393307   0.000051
    30  H    0.000000  -0.000000  -0.000000  -0.000008   0.000051   0.392014
    31  H    0.000000  -0.000000  -0.000000  -0.000000  -0.000000  -0.000000
    32  H    0.000000   0.000000  -0.000000  -0.000000  -0.000000   0.000000
    33  H   -0.000000  -0.000884   0.000000   0.000000  -0.000000  -0.000000
              31         32         33
     1  Zr  -0.001455   0.000120  -0.002757
     2  O    0.000000  -0.000000   0.000000
     3  O   -0.000000   0.000000  -0.000032
     4  O   -0.000000   0.000005  -0.000000
     5  O    0.001108  -0.000038   0.000402
     6  Si  -0.023117  -0.016857  -0.023401
     7  Si  -0.000000   0.000004  -0.000000
     8  Si  -0.000003   0.000000   0.000002
     9  Si   0.000009   0.000105   0.003459
    10  O   -0.000000   0.000000   0.000000
    11  O   -0.000000  -0.000000   0.000000
    12  O   -0.000000   0.000000   0.000000
    13  O    0.000000  -0.000001   0.034152
    14  O    0.000000   0.000000   0.000016
    15  O    0.000002   0.000690  -0.000410
    16  O    0.000000   0.000000   0.000000
    17  O   -0.000000  -0.000000   0.000000
    18  O    0.000000   0.000000   0.000000
    19  O    0.000308   0.303535   0.000174
    20  O    0.302552  -0.000369   0.000213
    21  O   -0.000523   0.000368   0.296662
    22  H   -0.000000  -0.000000   0.000000
    23  H   -0.000000  -0.000000  -0.000000
    24  H   -0.000004  -0.002366  -0.000381
    25  H    0.000000   0.000000  -0.000000
    26  H   -0.000000   0.000000  -0.000884
    27  H   -0.000000  -0.000000   0.000000
    28  H   -0.000000  -0.000000   0.000000
    29  H   -0.000000  -0.000000  -0.000000
    30  H   -0.000000   0.000000  -0.000000
    31  H    0.386207  -0.000092  -0.000023
    32  H   -0.000092   0.371227   0.000010
    33  H   -0.000023   0.000010   0.338026
 Mulliken charges:
               1
     1  Zr   1.471471
     2  O   -0.752589
     3  O   -0.730130
     4  O   -0.743000
     5  O   -0.754699
     6  Si   1.202824
     7  Si   1.200503
     8  Si   1.171824
     9  Si   1.232982
    10  O   -0.648883
    11  O   -0.596337
    12  O   -0.636211
    13  O   -0.635289
    14  O   -0.579219
    15  O   -0.665861
    16  O   -0.589770
    17  O   -0.651196
    18  O   -0.588400
    19  O   -0.653945
    20  O   -0.590002
    21  O   -0.612845
    22  H    0.353567
    23  H    0.335441
    24  H    0.379826
    25  H    0.342190
    26  H    0.351816
    27  H    0.340406
    28  H    0.349483
    29  H    0.330566
    30  H    0.332014
    31  H    0.335033
    32  H    0.343657
    33  H    0.354774
 Sum of Mulliken charges =  -0.00000
 Mulliken charges with hydrogens summed into heavy atoms:
               1
     1  Zr   1.471471
     2  O   -0.752589
     3  O   -0.730130
     4  O   -0.743000
     5  O   -0.754699
     6  Si   1.202824
     7  Si   1.200503
     8  Si   1.171824
     9  Si   1.232982
    10  O   -0.308478
    11  O   -0.260896
    12  O   -0.282644
    13  O   -0.283473
    14  O   -0.237029
    15  O   -0.286035
    16  O   -0.259204
    17  O   -0.301714
    18  O   -0.256386
    19  O   -0.310288
    20  O   -0.254970
    21  O   -0.258071
 Electronic spatial extent (au):  <R**2>=           9788.8309
 Charge=             -0.0000 electrons
 Dipole moment (field-independent basis, Debye):
    X=             -0.6109    Y=              1.4856    Z=              0.2705  Tot=              1.6289
 Quadrupole moment (field-independent basis, Debye-Ang):
   XX=           -159.7423   YY=           -151.0055   ZZ=           -146.4385
   XY=             10.9050   XZ=             15.2800   YZ=              1.3492
 Traceless Quadrupole moment (field-independent basis, Debye-Ang):
   XX=             -7.3469   YY=              1.3900   ZZ=              5.9570
   XY=             10.9050   XZ=             15.2800   YZ=              1.3492
 Octapole moment (field-independent basis, Debye-Ang**2):
  XXX=            -38.2578  YYY=             12.8164  ZZZ=             12.9902  XYY=            -56.9505
  XXY=             18.1920  XXZ=            -14.7861  XZZ=             18.8243  YZZ=             -1.6369
  YYZ=             11.8104  XYZ=              6.6430
 Hexadecapole moment (field-independent basis, Debye-Ang**3):
 XXXX=          -6629.5734 YYYY=          -2350.5589 ZZZZ=          -1914.0564 XXXY=            282.7026
 XXXZ=            521.2022 YYYX=             26.1676 YYYZ=             50.2259 ZZZX=             71.6385
 ZZZY=             -3.9986 XXYY=          -1520.5492 XXZZ=          -1292.3185 YYZZ=           -739.5868
 XXYZ=            -98.9089 YYXZ=             -1.0486 ZZXY=             49.8688
 N-N= 2.843657150257D+03 E-N=-1.140104236719D+04  KE= 2.372485294649D+03
 1\1\GINC-GRA1205\FOpt\RB3LYP\Gen\H12O16Si4Zr1\SARASHS\20-Jun-2020\0\\#
 n B3LYP/GEN PSEUDO=READ Opt\\Title\\0,1\Zr,-7.4404590013,0.6377169018,
 -0.4481996931\O,-5.5343183761,1.1233749444,-0.3565549287\O,-8.25911955
 14,2.2947932624,-1.322631011\O,-7.8170139179,0.3115113654,1.4635183413
 \O,-7.5118003549,-0.9783483219,-1.6000535118\Si,-8.4915752329,-1.77681
 78643,-2.6581803919\Si,-7.2644636166,0.414831945,3.0017524331\Si,-4.11
 01753172,1.3835364015,0.4155106179\Si,-9.7978960567,1.934471529,-1.733
 2021977\O,-6.0140162242,-0.6929363168,3.1023321746\O,-8.4040864664,0.0
 071747747,4.1177616616\O,-6.7364438967,1.9320786665,3.3555456005\O,-10
 .0332496529,1.4980583543,-3.3134620604\O,-10.8977239201,3.1056502922,-
 1.4087523115\O,-9.9207210098,0.5295870483,-0.8298762726\O,-3.066567280
 9,0.2502066681,-0.1796452432\O,-4.2720130691,1.265259109,2.0596596008\
 O,-3.5828058207,2.9295948324,0.1998442367\O,-10.015766065,-1.923999825
 3,-1.9662386821\O,-7.9330184414,-3.2984956946,-2.9194739652\O,-8.66260
 12964,-0.9520634493,-4.057004207\H,-5.8485085382,2.1129198809,2.998452
 08\H,-8.7392192852,0.7528080088,4.6281684396\H,-10.2779910908,-0.31399
 32115,-1.1890193154\H,-10.6949163843,3.6881651547,-0.6680287972\H,-10.
 4662723596,2.1461283671,-3.8802874365\H,-5.9208655731,-1.1014715661,3.
 9708982814\H,-4.5431137976,0.3912319349,2.3972308387\H,-2.1593272848,0
 .3241676982,0.1371589095\H,-3.7733715746,3.298401897,-0.6695317117\H,-
 6.9756594815,-3.3940460171,-2.8658456098\H,-10.1312074408,-2.707167644
 8,-1.4149527081\H,-9.122112621,-0.096729125,-4.0062531608\\Version=ES6
 4L-G16RevB.01\State=1-A\HF=-2416.4278783\RMSD=8.286e-09\RMSF=1.001e-05
 \Dipole=-0.2555399,0.3513118,0.4711397\Quadrupole=3.762716,-0.8713567,
 -2.8913593,-8.9466322,-0.0655907,-11.3741103\PG=C01 [X(H12O16Si4Zr1)]\
 \@


          EVOLUTION
 IN THE BEGINNING GOD MADE MAN.
 HE WORKED THE DIRT WITH HIS HANDS.
 THEN GOD DECIDED TO GIVE MAN SCIENCE,
 MAN SHOULD BE USEFUL (LIKE AN APPLIANCE.)
 BUT SOON MAN'S KNOWLEDGE GREW TOO GREAT,
 TO THE HEADING SCIENCE HE COULDN'T RELATE
 SO GOD SAID "LETS HAVE DIFFERENT FIELDS,
 WE'LL DIVIDE THEM UP, SEE WHAT IT YIELDS."
 ENTER PHYSICS, CHEMISTRY, BIO
 THEY SPRANG UP AROUND THE NILE.
 BUT CHEMISTRY SURPASSED THE REST
 FAR AND AWAY IT WAS THE BEST.
 EXPERIMENT WAS GOD'S DECREE
 EXPERIMENT DID CHEMISTS WITH LOTS OF GLEE
 BUT SOON THEIR TESTS BEGAN TO BOG,
 THEY FOUND THEMSELVES DEEP IN A FOG.
 "GIVE US SOME HELP" THEY CRIED TO GOD.
 GOD LOOKED AROUND, THEN GAVE THE NOD.
 ENTER EINSTEIN, HEISENBERG, BOHR,
 REACTION PATHS WERE CLEAR ONCE MORE.
 WITH THEORISTS GOD SEND DIRECTION
 AND THEN HE STOPPED, HE'D MADE PERFECTION.
          -- THOMAS A. HOLME, 1981
 Job cpu time:       0 days 15 hours 50 minutes 48.6 seconds.
 Elapsed time:       0 days  1 hours  1 minutes 18.1 seconds.
 File lengths (MBytes):  RWF=     91 Int=      0 D2E=      0 Chk=     12 Scr=      1
 Normal termination of Gaussian 16 at Sat Jun 20 05:45:59 2020.
