 Entering Gaussian System, Link 0=g16
 Initial command:
 /opt/software/gaussian/g16.b01/l1.exe "/localscratch/sarashs.33237177.0/Gau-38516.inp" -scrdir="/localscratch/sarashs.33237177.0/"
 Entering Link 1 = /opt/software/gaussian/g16.b01/l1.exe PID=     38517.
  
 Copyright (c) 1988-2017, Gaussian, Inc.  All Rights Reserved.
  
 This is part of the Gaussian(R) 16 program.  It is based on
 the Gaussian(R) 09 system (copyright 2009, Gaussian, Inc.),
 the Gaussian(R) 03 system (copyright 2003, Gaussian, Inc.),
 the Gaussian(R) 98 system (copyright 1998, Gaussian, Inc.),
 the Gaussian(R) 94 system (copyright 1995, Gaussian, Inc.),
 the Gaussian 92(TM) system (copyright 1992, Gaussian, Inc.),
 the Gaussian 90(TM) system (copyright 1990, Gaussian, Inc.),
 the Gaussian 88(TM) system (copyright 1988, Gaussian, Inc.),
 the Gaussian 86(TM) system (copyright 1986, Carnegie Mellon
 University), and the Gaussian 82(TM) system (copyright 1983,
 Carnegie Mellon University). Gaussian is a federally registered
 trademark of Gaussian, Inc.
  
 This software contains proprietary and confidential information,
 including trade secrets, belonging to Gaussian, Inc.
  
 This software is provided under written license and may be
 used, copied, transmitted, or stored only in accord with that
 written license.
  
 The following legend is applicable only to US Government
 contracts under FAR:
  
                    RESTRICTED RIGHTS LEGEND
  
 Use, reproduction and disclosure by the US Government is
 subject to restrictions as set forth in subparagraphs (a)
 and (c) of the Commercial Computer Software - Restricted
 Rights clause in FAR 52.227-19.
  
 Gaussian, Inc.
 340 Quinnipiac St., Bldg. 40, Wallingford CT 06492
  
  
 ---------------------------------------------------------------
 Warning -- This program may not be used in any manner that
 competes with the business of Gaussian, Inc. or will provide
 assistance to any competitor of Gaussian, Inc.  The licensee
 of this program is prohibited from giving any competitor of
 Gaussian, Inc. access to this program.  By using this program,
 the user acknowledges that Gaussian, Inc. is engaged in the
 business of creating and licensing software in the field of
 computational chemistry and represents and warrants to the
 licensee that it is not a competitor of Gaussian, Inc. and that
 it will not use this program in any manner prohibited above.
 ---------------------------------------------------------------
  

 Cite this work as:
 Gaussian 16, Revision B.01,
 M. J. Frisch, G. W. Trucks, H. B. Schlegel, G. E. Scuseria, 
 M. A. Robb, J. R. Cheeseman, G. Scalmani, V. Barone, 
 G. A. Petersson, H. Nakatsuji, X. Li, M. Caricato, A. V. Marenich, 
 J. Bloino, B. G. Janesko, R. Gomperts, B. Mennucci, H. P. Hratchian, 
 J. V. Ortiz, A. F. Izmaylov, J. L. Sonnenberg, D. Williams-Young, 
 F. Ding, F. Lipparini, F. Egidi, J. Goings, B. Peng, A. Petrone, 
 T. Henderson, D. Ranasinghe, V. G. Zakrzewski, J. Gao, N. Rega, 
 G. Zheng, W. Liang, M. Hada, M. Ehara, K. Toyota, R. Fukuda, 
 J. Hasegawa, M. Ishida, T. Nakajima, Y. Honda, O. Kitao, H. Nakai, 
 T. Vreven, K. Throssell, J. A. Montgomery, Jr., J. E. Peralta, 
 F. Ogliaro, M. J. Bearpark, J. J. Heyd, E. N. Brothers, K. N. Kudin, 
 V. N. Staroverov, T. A. Keith, R. Kobayashi, J. Normand, 
 K. Raghavachari, A. P. Rendell, J. C. Burant, S. S. Iyengar, 
 J. Tomasi, M. Cossi, J. M. Millam, M. Klene, C. Adamo, R. Cammi, 
 J. W. Ochterski, R. L. Martin, K. Morokuma, O. Farkas, 
 J. B. Foresman, and D. J. Fox, Gaussian, Inc., Wallingford CT, 2016.
 
 ******************************************
 Gaussian 16:  ES64L-G16RevB.01 20-Dec-2017
                20-Jun-2020 
 ******************************************
 %NProcShared=16
 Will use up to   16 processors via shared memory.
 ----------------------------
 #n B3LYP/GEN PSEUDO=READ Opt
 ----------------------------
 1/18=20,19=15,26=3,38=1/1,3;
 2/9=110,12=2,17=6,18=5,40=1/2;
 3/5=7,11=2,16=1,17=8,25=1,30=1,71=1,74=-5/1,2,3;
 4//1;
 5/5=2,38=5/2;
 6/7=2,8=2,9=2,10=2,28=1/1;
 7//1,2,3,16;
 1/18=20,19=15,26=3/3(2);
 2/9=110/2;
 99//99;
 2/9=110/2;
 3/5=7,6=1,11=2,16=1,17=8,25=1,30=1,71=1,74=-5,82=7/1,2,3;
 4/5=5,16=3,69=1/1;
 5/5=2,38=5/2;
 7//1,2,3,16;
 1/18=20,19=15,26=3/3(-5);
 2/9=110/2;
 6/7=2,8=2,9=2,10=2,19=2,28=1/1;
 99/9=1/99;
 -----
 Title
 -----
 Symbolic Z-matrix:
 Charge =  0 Multiplicity = 1
 Si                   -7.61722   0.12637  -0.04354 
 O                    -6.02868   0.10292  -0.04789 
 O                    -8.10353   1.42599  -0.82058 
 O                    -8.12467   0.17031   1.46409 
 O                    -8.16957  -1.17378  -0.77409 
 Zr                   -8.18748  -2.2022   -2.47467 
 Zr                   -7.56335   0.12121   3.37087 
 Zr                   -4.40088   1.23669  -0.14825 
 Zr                   -9.60438   2.65237  -1.26005 
 O                    -5.45937   0.16852   3.46993 
 O                    -8.26542  -1.65074   4.26766 
 O                    -8.35068   1.79045   4.38616 
 O                    -11.00087   1.65499  -2.48153 
 O                    -8.83464   4.32079  -2.29003 
 O                    -10.53711   3.29043   0.51703 
 O                    -2.68577   0.06702   0.20457 
 O                    -4.54407   2.75264   1.30716 
 O                    -4.28971   2.10712  -2.06309 
 O                    -9.37178  -3.9302   -2.25315 
 O                    -6.2135   -2.74767  -2.96656 
 O                    -8.98174  -0.99121  -4.00391 
 H                    -8.44002   2.4855    3.68664 
 H                    -8.04122  -2.36222   3.61646 
 H                    -11.43783   2.8808    0.48338 
 H                    -7.90316   4.40334  -1.96361 
 H                    -10.70068   1.8452   -3.40591 
 H                    -5.18816  -0.78298   3.42984 
 H                    -5.49273   2.73167   1.59155 
 H                    -2.05077   0.68843   0.64174 
 H                    -4.56306   1.38194  -2.67964 
 H                    -5.65451  -2.03579  -2.56443 
 H                    -8.71815  -4.66601  -2.14461 
 H                    -9.89368  -0.76627  -3.6909 
 

 GradGradGradGradGradGradGradGradGradGradGradGradGradGradGradGradGradGrad
 Berny optimization.
 Initialization pass.
                           ----------------------------
                           !    Initial Parameters    !
                           ! (Angstroms and Degrees)  !
 --------------------------                            --------------------------
 ! Name  Definition              Value          Derivative Info.                !
 --------------------------------------------------------------------------------
 ! R1    R(1,2)                  1.5887         estimate D2E/DX2                !
 ! R2    R(1,3)                  1.5904         estimate D2E/DX2                !
 ! R3    R(1,4)                  1.5913         estimate D2E/DX2                !
 ! R4    R(1,5)                  1.5903         estimate D2E/DX2                !
 ! R5    R(2,8)                  1.9863         estimate D2E/DX2                !
 ! R6    R(3,9)                  1.9874         estimate D2E/DX2                !
 ! R7    R(4,7)                  1.9883         estimate D2E/DX2                !
 ! R8    R(5,6)                  1.9874         estimate D2E/DX2                !
 ! R9    R(6,19)                 2.1066         estimate D2E/DX2                !
 ! R10   R(6,20)                 2.1062         estimate D2E/DX2                !
 ! R11   R(6,21)                 2.1062         estimate D2E/DX2                !
 ! R12   R(7,10)                 2.1068         estimate D2E/DX2                !
 ! R13   R(7,11)                 2.1064         estimate D2E/DX2                !
 ! R14   R(7,12)                 2.1064         estimate D2E/DX2                !
 ! R15   R(8,16)                 2.1058         estimate D2E/DX2                !
 ! R16   R(8,17)                 2.1064         estimate D2E/DX2                !
 ! R17   R(8,18)                 2.1063         estimate D2E/DX2                !
 ! R18   R(9,13)                 2.1064         estimate D2E/DX2                !
 ! R19   R(9,14)                 2.1064         estimate D2E/DX2                !
 ! R20   R(9,15)                 2.106          estimate D2E/DX2                !
 ! R21   R(10,27)                0.9902         estimate D2E/DX2                !
 ! R22   R(11,23)                0.9902         estimate D2E/DX2                !
 ! R23   R(12,22)                0.9902         estimate D2E/DX2                !
 ! R24   R(13,26)                0.9903         estimate D2E/DX2                !
 ! R25   R(14,25)                0.9905         estimate D2E/DX2                !
 ! R26   R(15,24)                0.9901         estimate D2E/DX2                !
 ! R27   R(16,29)                0.9902         estimate D2E/DX2                !
 ! R28   R(17,28)                0.9906         estimate D2E/DX2                !
 ! R29   R(18,30)                0.9903         estimate D2E/DX2                !
 ! R30   R(19,32)                0.9902         estimate D2E/DX2                !
 ! R31   R(20,31)                0.9904         estimate D2E/DX2                !
 ! R32   R(21,33)                0.9901         estimate D2E/DX2                !
 ! A1    A(2,1,3)              108.4497         estimate D2E/DX2                !
 ! A2    A(2,1,4)              108.7746         estimate D2E/DX2                !
 ! A3    A(2,1,5)              109.5088         estimate D2E/DX2                !
 ! A4    A(3,1,4)              110.0483         estimate D2E/DX2                !
 ! A5    A(3,1,5)              109.7199         estimate D2E/DX2                !
 ! A6    A(4,1,5)              110.3053         estimate D2E/DX2                !
 ! A7    A(1,2,8)              144.2084         estimate D2E/DX2                !
 ! A8    A(1,3,9)              147.4829         estimate D2E/DX2                !
 ! A9    A(1,4,7)              144.8699         estimate D2E/DX2                !
 ! A10   A(1,5,6)              145.0077         estimate D2E/DX2                !
 ! A11   A(5,6,19)             109.8497         estimate D2E/DX2                !
 ! A12   A(5,6,20)             108.9899         estimate D2E/DX2                !
 ! A13   A(5,6,21)             109.0959         estimate D2E/DX2                !
 ! A14   A(19,6,20)            109.8171         estimate D2E/DX2                !
 ! A15   A(19,6,21)            109.6327         estimate D2E/DX2                !
 ! A16   A(20,6,21)            109.4373         estimate D2E/DX2                !
 ! A17   A(4,7,10)             109.0544         estimate D2E/DX2                !
 ! A18   A(4,7,11)             109.5706         estimate D2E/DX2                !
 ! A19   A(4,7,12)             109.703          estimate D2E/DX2                !
 ! A20   A(10,7,11)            109.3733         estimate D2E/DX2                !
 ! A21   A(10,7,12)            109.4393         estimate D2E/DX2                !
 ! A22   A(11,7,12)            109.6843         estimate D2E/DX2                !
 ! A23   A(2,8,16)             109.9968         estimate D2E/DX2                !
 ! A24   A(2,8,17)             108.674          estimate D2E/DX2                !
 ! A25   A(2,8,18)             108.9698         estimate D2E/DX2                !
 ! A26   A(16,8,17)            109.8381         estimate D2E/DX2                !
 ! A27   A(16,8,18)            109.8082         estimate D2E/DX2                !
 ! A28   A(17,8,18)            109.5309         estimate D2E/DX2                !
 ! A29   A(3,9,13)             109.6767         estimate D2E/DX2                !
 ! A30   A(3,9,14)             108.7192         estimate D2E/DX2                !
 ! A31   A(3,9,15)             109.5626         estimate D2E/DX2                !
 ! A32   A(13,9,14)            109.4971         estimate D2E/DX2                !
 ! A33   A(13,9,15)            109.8254         estimate D2E/DX2                !
 ! A34   A(14,9,15)            109.5408         estimate D2E/DX2                !
 ! A35   A(7,10,27)            104.4798         estimate D2E/DX2                !
 ! A36   A(7,11,23)            104.4169         estimate D2E/DX2                !
 ! A37   A(7,12,22)            104.4465         estimate D2E/DX2                !
 ! A38   A(9,13,26)            104.4399         estimate D2E/DX2                !
 ! A39   A(9,14,25)            104.3907         estimate D2E/DX2                !
 ! A40   A(9,15,24)            104.4122         estimate D2E/DX2                !
 ! A41   A(8,16,29)            104.3417         estimate D2E/DX2                !
 ! A42   A(8,17,28)            104.373          estimate D2E/DX2                !
 ! A43   A(8,18,30)            104.4066         estimate D2E/DX2                !
 ! A44   A(6,19,32)            104.4766         estimate D2E/DX2                !
 ! A45   A(6,20,31)            104.3587         estimate D2E/DX2                !
 ! A46   A(6,21,33)            104.3852         estimate D2E/DX2                !
 ! D1    D(3,1,2,8)             26.3249         estimate D2E/DX2                !
 ! D2    D(4,1,2,8)            -93.3518         estimate D2E/DX2                !
 ! D3    D(5,1,2,8)            146.0321         estimate D2E/DX2                !
 ! D4    D(2,1,3,9)           -166.9475         estimate D2E/DX2                !
 ! D5    D(4,1,3,9)            -48.0714         estimate D2E/DX2                !
 ! D6    D(5,1,3,9)             73.4775         estimate D2E/DX2                !
 ! D7    D(2,1,4,7)             -4.3589         estimate D2E/DX2                !
 ! D8    D(3,1,4,7)           -123.0357         estimate D2E/DX2                !
 ! D9    D(5,1,4,7)            115.765          estimate D2E/DX2                !
 ! D10   D(2,1,5,6)            -59.4746         estimate D2E/DX2                !
 ! D11   D(3,1,5,6)             59.45           estimate D2E/DX2                !
 ! D12   D(4,1,5,6)           -179.1554         estimate D2E/DX2                !
 ! D13   D(1,2,8,16)           172.3965         estimate D2E/DX2                !
 ! D14   D(1,2,8,17)            52.1186         estimate D2E/DX2                !
 ! D15   D(1,2,8,18)           -67.1784         estimate D2E/DX2                !
 ! D16   D(1,3,9,13)           -68.5855         estimate D2E/DX2                !
 ! D17   D(1,3,9,14)           171.7166         estimate D2E/DX2                !
 ! D18   D(1,3,9,15)            52.0332         estimate D2E/DX2                !
 ! D19   D(1,4,7,10)             6.618          estimate D2E/DX2                !
 ! D20   D(1,4,7,11)          -113.0687         estimate D2E/DX2                !
 ! D21   D(1,4,7,12)           126.4649         estimate D2E/DX2                !
 ! D22   D(1,5,6,19)          -179.8801         estimate D2E/DX2                !
 ! D23   D(1,5,6,20)            59.7613         estimate D2E/DX2                !
 ! D24   D(1,5,6,21)           -59.6819         estimate D2E/DX2                !
 ! D25   D(5,6,19,32)         -102.6797         estimate D2E/DX2                !
 ! D26   D(20,6,19,32)          17.1764         estimate D2E/DX2                !
 ! D27   D(21,6,19,32)         137.4484         estimate D2E/DX2                !
 ! D28   D(5,6,20,31)          -28.488          estimate D2E/DX2                !
 ! D29   D(19,6,20,31)        -148.8666         estimate D2E/DX2                !
 ! D30   D(21,6,20,31)          90.7429         estimate D2E/DX2                !
 ! D31   D(5,6,21,33)          -59.7546         estimate D2E/DX2                !
 ! D32   D(19,6,21,33)          60.5771         estimate D2E/DX2                !
 ! D33   D(20,6,21,33)        -178.9199         estimate D2E/DX2                !
 ! D34   D(4,7,10,27)          -88.7852         estimate D2E/DX2                !
 ! D35   D(11,7,10,27)          31.0236         estimate D2E/DX2                !
 ! D36   D(12,7,10,27)         151.205          estimate D2E/DX2                !
 ! D37   D(4,7,11,23)           46.1314         estimate D2E/DX2                !
 ! D38   D(10,7,11,23)         -73.3596         estimate D2E/DX2                !
 ! D39   D(12,7,11,23)         166.6091         estimate D2E/DX2                !
 ! D40   D(4,7,12,22)          -28.0722         estimate D2E/DX2                !
 ! D41   D(10,7,12,22)          91.5394         estimate D2E/DX2                !
 ! D42   D(11,7,12,22)        -148.4695         estimate D2E/DX2                !
 ! D43   D(2,8,16,29)         -148.5587         estimate D2E/DX2                !
 ! D44   D(17,8,16,29)         -28.9873         estimate D2E/DX2                !
 ! D45   D(18,8,16,29)          91.5237         estimate D2E/DX2                !
 ! D46   D(2,8,17,28)          -13.8799         estimate D2E/DX2                !
 ! D47   D(16,8,17,28)        -134.2562         estimate D2E/DX2                !
 ! D48   D(18,8,17,28)         105.0652         estimate D2E/DX2                !
 ! D49   D(2,8,18,30)          -40.7771         estimate D2E/DX2                !
 ! D50   D(16,8,18,30)          79.764          estimate D2E/DX2                !
 ! D51   D(17,8,18,30)        -159.5393         estimate D2E/DX2                !
 ! D52   D(3,9,13,26)          -90.757          estimate D2E/DX2                !
 ! D53   D(14,9,13,26)          28.4638         estimate D2E/DX2                !
 ! D54   D(15,9,13,26)         148.7837         estimate D2E/DX2                !
 ! D55   D(3,9,14,25)          -27.8106         estimate D2E/DX2                !
 ! D56   D(13,9,14,25)        -147.6203         estimate D2E/DX2                !
 ! D57   D(15,9,14,25)          91.8863         estimate D2E/DX2                !
 ! D58   D(3,9,15,24)         -112.9532         estimate D2E/DX2                !
 ! D59   D(13,9,15,24)           7.5751         estimate D2E/DX2                !
 ! D60   D(14,9,15,24)         127.8686         estimate D2E/DX2                !
 --------------------------------------------------------------------------------
 Trust Radius=3.00D-01 FncErr=1.00D-07 GrdErr=1.00D-06 EigMax=2.50D+02 EigMin=1.00D-04
 Number of steps in this run=    148 maximum allowed number of steps=    198.
 GradGradGradGradGradGradGradGradGradGradGradGradGradGradGradGradGradGrad

                          Input orientation:                          
 ---------------------------------------------------------------------
 Center     Atomic      Atomic             Coordinates (Angstroms)
 Number     Number       Type             X           Y           Z
 ---------------------------------------------------------------------
      1         14           0       -7.617220    0.126370   -0.043540
      2          8           0       -6.028680    0.102920   -0.047890
      3          8           0       -8.103530    1.425990   -0.820580
      4          8           0       -8.124670    0.170310    1.464090
      5          8           0       -8.169570   -1.173780   -0.774090
      6         40           0       -8.187480   -2.202200   -2.474670
      7         40           0       -7.563350    0.121210    3.370870
      8         40           0       -4.400880    1.236690   -0.148250
      9         40           0       -9.604380    2.652370   -1.260050
     10          8           0       -5.459370    0.168520    3.469930
     11          8           0       -8.265420   -1.650740    4.267660
     12          8           0       -8.350680    1.790450    4.386160
     13          8           0      -11.000870    1.654990   -2.481530
     14          8           0       -8.834640    4.320790   -2.290030
     15          8           0      -10.537110    3.290430    0.517030
     16          8           0       -2.685770    0.067020    0.204570
     17          8           0       -4.544070    2.752640    1.307160
     18          8           0       -4.289710    2.107120   -2.063090
     19          8           0       -9.371780   -3.930200   -2.253150
     20          8           0       -6.213500   -2.747670   -2.966560
     21          8           0       -8.981740   -0.991210   -4.003910
     22          1           0       -8.440020    2.485500    3.686640
     23          1           0       -8.041220   -2.362220    3.616460
     24          1           0      -11.437830    2.880800    0.483380
     25          1           0       -7.903160    4.403340   -1.963610
     26          1           0      -10.700680    1.845200   -3.405910
     27          1           0       -5.188160   -0.782980    3.429840
     28          1           0       -5.492730    2.731670    1.591550
     29          1           0       -2.050770    0.688430    0.641740
     30          1           0       -4.563060    1.381940   -2.679640
     31          1           0       -5.654510   -2.035790   -2.564430
     32          1           0       -8.718150   -4.666010   -2.144610
     33          1           0       -9.893680   -0.766270   -3.690900
 ---------------------------------------------------------------------
                    Distance matrix (angstroms):
                    1          2          3          4          5
     1  Si   0.000000
     2  O    1.588719   0.000000
     3  O    1.590378   2.579257   0.000000
     4  O    1.591347   2.585304   2.607086   0.000000
     5  O    1.590341   2.596293   2.601024   2.611138   0.000000
     6  Zr   3.414356   3.982870   3.988336   4.598541   1.987446
     7  Zr   3.414839   3.747461   4.422951   1.988291   4.384655
     8  Zr   3.404206   1.986263   3.767954   4.195643   4.517197
     9  Zr   3.436477   4.555728   1.987383   3.971285   4.115126
    10  O    4.123417   3.564193   5.194352   3.335749   5.211397
    11  O    4.707943   5.167427   5.948333   3.346048   5.065167
    12  O    4.788462   5.282068   5.225328   3.348795   5.953792
    13  O    4.441797   5.749278   3.347503   5.103403   4.351270
    14  O    4.911414   5.539949   3.327713   5.641273   5.738527
    15  O    4.341805   5.550252   3.344794   4.056099   5.215497
    16  O    4.938044   3.352622   5.678896   5.583788   5.706963
    17  O    4.262152   3.325845   4.353968   4.417437   5.735209
    18  O    4.367411   3.331946   4.068537   5.558700   5.242055
    19  O    4.941317   5.683797   5.687661   5.673389   3.351235
    20  O    4.332965   4.083951   5.059336   5.638957   3.333206
    21  O    4.335370   5.056459   4.092395   5.655327   3.335369
    22  H    4.489625   5.043606   4.642286   3.224791   5.775949
    23  H    4.446173   4.853318   5.834530   3.324661   4.550362
    24  H    4.739366   6.103914   3.864497   4.391535   5.357460
    25  H    4.696904   5.067274   3.195509   5.451306   5.708783
    26  H    4.875206   6.011607   3.688476   5.758297   4.737851
    27  H    4.334930   3.685905   5.607584   3.660058   5.168613
    28  H    3.738257   3.144095   3.786746   3.674768   5.292850
    29  H    5.636567   4.079483   6.270429   6.151176   6.550734
    30  H    4.225325   3.272620   3.999121   5.596750   4.813496
    31  H    3.857726   3.323711   4.585044   5.215126   3.205293
    32  H    5.347284   5.862779   6.264445   6.063409   3.791429
    33  H    4.391163   5.381936   4.031052   5.529964   3.412682
                    6          7          8          9         10
     6  Zr   0.000000
     7  Zr   6.321243   0.000000
     8  Zr   5.619300   4.861041   0.000000
     9  Zr   5.200938   5.658445   5.506057   0.000000
    10  O    6.957095   2.106842   3.918241   6.761903   0.000000
    11  O    6.765294   2.106405   6.540045   7.131981   3.438022
    12  O    7.939703   2.106434   6.038911   5.847594   3.439449
    13  O    4.774215   6.958420   7.012777   2.106410   8.266661
    14  O    6.557614   7.162293   5.810088   2.106415   7.861993
    15  O    6.681318   5.199193   6.504903   2.105972   6.652021
    16  O    6.526599   5.815426   2.105757   7.529695   4.285526
    17  O    7.219911   4.505483   2.106377   5.675153   3.491851
    18  O    5.825139   6.647442   2.106328   5.402582   5.978343
    19  O    2.106566   7.163375   7.472430   6.661124   8.053577
    20  O    2.106203   7.086296   5.206111   6.600809   7.106425
    21  O    2.106163   7.591883   6.388578   4.603490   8.343282
    22  H    7.745970   2.541285   5.707938   5.084616   3.781486
    23  H    6.094987   2.540885   6.354311   7.167282   3.618296
    24  H    6.719503   5.564578   7.254014   2.540328   7.212346
    25  H    6.631378   6.848999   5.058574   2.540677   7.309526
    26  H    4.854362   7.664185   7.118294   2.541282   8.806802
    27  H    6.772986   2.542157   4.183492   7.300664   0.990209
    28  H    6.938220   3.777294   2.540474   5.004356   3.177918
    29  H    7.465049   6.177251   2.539230   8.033112   4.459542
    30  H    5.101421   6.870215   2.540735   5.389261   6.331901
    31  H    2.540017   6.597280   4.256600   6.267513   6.427329
    32  H    2.541832   7.394022   7.580643   7.424725   8.094158
    33  H    2.540124   7.489102   6.836159   4.204738   8.474339
                   11         12         13         14         15
    11  O    0.000000
    12  O    3.444285   0.000000
    13  O    7.997631   7.362542   0.000000
    14  O    8.887434   7.156001   3.440307   0.000000
    15  O    6.606282   4.690478   3.446897   3.440877   0.000000
    16  O    7.112798   7.248939   8.881310   7.882017   8.493029
    17  O    6.480954   4.989622   7.566325   5.814453   6.068777
    18  O    8.366969   7.627882   6.739375   5.060457   6.862015
    19  O    6.995780   8.823203   5.822408   8.268538   7.821086
    20  O    7.599182   8.900818   6.522084   7.569095   8.202905
    21  O    8.328683   8.861667   3.660178   5.583580   6.417984
    22  H    4.180496   0.990154   6.730083   6.264551   3.884859
    23  H    0.990218   4.234722   7.879276   8.954259   6.912914
    24  H    6.702225   5.094217   3.237937   4.067182   0.990063
    25  H    8.695507   6.880919   4.173425   0.990464   3.785477
    26  H    8.777002   8.138910   0.990339   3.294820   4.183886
    27  H    3.305220   4.187914   8.641504   8.488946   7.327237
    28  H    5.835657   4.106534   6.934611   5.362866   5.187733
    29  H    7.565771   7.411072   9.528554   8.234695   8.877157
    30  H    8.436207   8.027358   6.446643   5.199522   7.039198
    31  H    7.324109   8.379746   6.497099   7.112990   7.855177
    32  H    7.100283   9.190858   6.728994   8.988731   8.584747
    33  H    8.171426   8.611421   2.924200   5.381652   5.880263
                   16         17         18         19         20
    16  O    0.000000
    17  O    3.446961   0.000000
    18  O    3.446290   3.440927   0.000000
    19  O    8.168285   8.980142   7.893845   0.000000
    20  O    5.515743   7.162757   5.299643   3.447037   0.000000
    21  O    7.646594   7.868722   5.948241   3.443102   3.438662
    22  H    7.147395   4.572933   7.101242   8.792638   8.752630
    23  H    6.798753   6.612467   8.142857   6.219427   6.842900
    24  H    9.197480   6.943988   7.627497   7.625410   8.418752
    25  H    7.122207   4.970536   4.282469   8.466910   7.416050
    26  H    8.968627   7.806428   6.555326   6.037390   6.436013
    27  H    4.169751   4.173875   6.271537   7.726839   6.769436
    28  H    4.111338   0.990592   3.897911   8.614480   7.163731
    29  H    0.990198   3.304586   3.787036   9.127394   6.492683
    30  H    3.684006   4.215893   0.990323   7.178058   4.456451
    31  H    4.571935   6.257104   4.390641   4.183752   0.990430
    32  H    8.019341   9.185534   8.092776   0.990166   3.260200
    33  H    8.235474   8.122909   6.504661   3.514251   4.241974
                   21         22         23         24         25
    21  O    0.000000
    22  H    8.457277   0.000000
    23  H    7.799634   4.864602   0.000000
    24  H    6.415654   4.404997   6.988734   0.000000
    25  H    5.867481   5.990964   8.770920   4.560678   0.000000
    26  H    3.370101   7.471602   8.607485   4.091752   4.055913
    27  H    8.348368   4.617738   3.266309   7.820696   7.959802
    28  H    7.572463   3.624434   6.045062   6.049338   4.609101
    29  H    8.511263   7.302287   7.351253   9.640978   7.405327
    30  H    5.187510   7.535130   8.109082   7.714515   4.560463
    31  H    3.772759   8.202256   6.633728   8.179780   6.846883
    32  H    4.126819   9.231735   6.241443   8.441406   9.107693
    33  H    0.990054   8.192389   7.705594   5.754140   5.802635
                   26         27         28         29         30
    26  H    0.000000
    27  H    9.166389   0.000000
    28  H    7.272082   3.978044   0.000000
    29  H    9.619903   4.447670   4.113886   0.000000
    30  H    6.197778   6.511787   4.574836   4.221862   0.000000
    31  H    6.421371   6.141522   6.326691   5.539661   3.589626
    32  H    6.922222   7.655929   8.893138   8.993761   7.357223
    33  H    2.748135   8.535053   7.714157   9.077398   5.835492
                   31         32         33
    31  H    0.000000
    32  H    4.059581   0.000000
    33  H    4.566309   4.356702   0.000000
 Stoichiometry    H12O16SiZr4
 Framework group  C1[X(H12O16SiZr4)]
 Deg. of freedom    93
 Full point group                 C1      NOp   1
 Largest Abelian subgroup         C1      NOp   1
 Largest concise Abelian subgroup C1      NOp   1
                         Standard orientation:                         
 ---------------------------------------------------------------------
 Center     Atomic      Atomic             Coordinates (Angstroms)
 Number     Number       Type             X           Y           Z
 ---------------------------------------------------------------------
      1         14           0        0.075009   -0.068804   -0.357060
      2          8           0       -0.634189   -1.219738    0.477456
      3          8           0        0.677172    0.993617    0.661745
      4          8           0       -1.007669    0.626275   -1.293574
      5          8           0        1.244826   -0.693152   -1.235071
      6         40           0        2.950551   -1.712041   -1.187035
      7         40           0       -2.897642    0.576075   -1.909027
      8         40           0       -1.535463   -1.642044    2.196352
      9         40           0        1.462683    2.799285    0.930498
     10          8           0       -3.944926   -0.874671   -0.796681
     11          8           0       -2.960984    0.069611   -3.952657
     12          8           0       -3.789815    2.461821   -1.617391
     13          8           0        3.370897    2.881987    0.042331
     14          8           0        1.633500    3.161214    2.998544
     15          8           0        0.207435    4.250632    0.062707
     16          8           0       -2.355597   -3.580111    2.122285
     17          8           0       -3.064956   -0.230520    2.520508
     18          8           0       -0.125147   -1.522929    3.756300
     19          8           0        3.678766   -1.980516   -3.145414
     20          8           0        2.604297   -3.586316   -0.290770
     21          8           0        4.361407   -0.640456   -0.048125
     22          1           0       -3.299682    2.850975   -0.850102
     23          1           0       -2.341652   -0.698556   -4.035595
     24          1           0        0.734778    4.612366   -0.693126
     25          1           0        0.912063    2.617082    3.404091
     26          1           0        3.991398    2.609237    0.764382
     27          1           0       -3.821378   -1.714428   -1.306641
     28          1           0       -2.877073    0.490037    1.867231
     29          1           0       -3.158460   -3.528925    2.699593
     30          1           0        0.692238   -1.938025    3.381711
     31          1           0        1.845954   -3.427236    0.326125
     32          1           0        3.453083   -2.918821   -3.366955
     33          1           0        4.453297    0.224531   -0.520947
 ---------------------------------------------------------------------
 Rotational constants (GHZ):           0.1077911           0.0854534           0.0789774
 General basis read from cards:  (5D, 7F)
 ======================================================================================================
                                       Pseudopotential Parameters
 ======================================================================================================
  Center     Atomic      Valence      Angular      Power
  Number     Number     Electrons     Momentum     of R      Exponent        Coefficient   SO-Coeffient
 ======================================================================================================
    1         14
                                   No pseudopotential on this center.
    2          8
                                   No pseudopotential on this center.
    3          8
                                   No pseudopotential on this center.
    4          8
                                   No pseudopotential on this center.
    5          8
                                   No pseudopotential on this center.
    6         40           12
                                      F and up 
                                                     0      645.9321873       -0.04258430    0.00000000
                                                     1      134.7547401      -20.22224090    0.00000000
                                                     2       42.3074619     -101.86951720    0.00000000
                                                     2       12.0003227      -41.61957840    0.00000000
                                                     2        4.1260454       -4.69861600    0.00000000
                                      S - F
                                                     0      117.6251862        2.79105590    0.00000000
                                                     1       22.9646089       41.94894590    0.00000000
                                                     2        4.5225298       67.72718660    0.00000000
                                      P - F
                                                     0       47.1953145        4.99111440    0.00000000
                                                     1       48.0356033       20.71931720    0.00000000
                                                     2       19.4541456      195.58677580    0.00000000
                                                     2        4.0512875       48.28771760    0.00000000
                                      D - F
                                                     0       79.9073983        3.00492260    0.00000000
                                                     1       45.8263798       25.93779890    0.00000000
                                                     2       26.9903522      125.12449340    0.00000000
                                                     2        9.6835718       70.76340220    0.00000000
                                                     2        2.7995666       15.04928220    0.00000000
    7         40           12
                                      F and up 
                                                     0      645.9321873       -0.04258430    0.00000000
                                                     1      134.7547401      -20.22224090    0.00000000
                                                     2       42.3074619     -101.86951720    0.00000000
                                                     2       12.0003227      -41.61957840    0.00000000
                                                     2        4.1260454       -4.69861600    0.00000000
                                      S - F
                                                     0      117.6251862        2.79105590    0.00000000
                                                     1       22.9646089       41.94894590    0.00000000
                                                     2        4.5225298       67.72718660    0.00000000
                                      P - F
                                                     0       47.1953145        4.99111440    0.00000000
                                                     1       48.0356033       20.71931720    0.00000000
                                                     2       19.4541456      195.58677580    0.00000000
                                                     2        4.0512875       48.28771760    0.00000000
                                      D - F
                                                     0       79.9073983        3.00492260    0.00000000
                                                     1       45.8263798       25.93779890    0.00000000
                                                     2       26.9903522      125.12449340    0.00000000
                                                     2        9.6835718       70.76340220    0.00000000
                                                     2        2.7995666       15.04928220    0.00000000
    8         40           12
                                      F and up 
                                                     0      645.9321873       -0.04258430    0.00000000
                                                     1      134.7547401      -20.22224090    0.00000000
                                                     2       42.3074619     -101.86951720    0.00000000
                                                     2       12.0003227      -41.61957840    0.00000000
                                                     2        4.1260454       -4.69861600    0.00000000
                                      S - F
                                                     0      117.6251862        2.79105590    0.00000000
                                                     1       22.9646089       41.94894590    0.00000000
                                                     2        4.5225298       67.72718660    0.00000000
                                      P - F
                                                     0       47.1953145        4.99111440    0.00000000
                                                     1       48.0356033       20.71931720    0.00000000
                                                     2       19.4541456      195.58677580    0.00000000
                                                     2        4.0512875       48.28771760    0.00000000
                                      D - F
                                                     0       79.9073983        3.00492260    0.00000000
                                                     1       45.8263798       25.93779890    0.00000000
                                                     2       26.9903522      125.12449340    0.00000000
                                                     2        9.6835718       70.76340220    0.00000000
                                                     2        2.7995666       15.04928220    0.00000000
    9         40           12
                                      F and up 
                                                     0      645.9321873       -0.04258430    0.00000000
                                                     1      134.7547401      -20.22224090    0.00000000
                                                     2       42.3074619     -101.86951720    0.00000000
                                                     2       12.0003227      -41.61957840    0.00000000
                                                     2        4.1260454       -4.69861600    0.00000000
                                      S - F
                                                     0      117.6251862        2.79105590    0.00000000
                                                     1       22.9646089       41.94894590    0.00000000
                                                     2        4.5225298       67.72718660    0.00000000
                                      P - F
                                                     0       47.1953145        4.99111440    0.00000000
                                                     1       48.0356033       20.71931720    0.00000000
                                                     2       19.4541456      195.58677580    0.00000000
                                                     2        4.0512875       48.28771760    0.00000000
                                      D - F
                                                     0       79.9073983        3.00492260    0.00000000
                                                     1       45.8263798       25.93779890    0.00000000
                                                     2       26.9903522      125.12449340    0.00000000
                                                     2        9.6835718       70.76340220    0.00000000
                                                     2        2.7995666       15.04928220    0.00000000
   10          8
                                   No pseudopotential on this center.
   11          8
                                   No pseudopotential on this center.
   12          8
                                   No pseudopotential on this center.
   13          8
                                   No pseudopotential on this center.
   14          8
                                   No pseudopotential on this center.
   15          8
                                   No pseudopotential on this center.
   16          8
                                   No pseudopotential on this center.
   17          8
                                   No pseudopotential on this center.
   18          8
                                   No pseudopotential on this center.
   19          8
                                   No pseudopotential on this center.
   20          8
                                   No pseudopotential on this center.
   21          8
                                   No pseudopotential on this center.
   22          1
                                   No pseudopotential on this center.
   23          1
                                   No pseudopotential on this center.
   24          1
                                   No pseudopotential on this center.
   25          1
                                   No pseudopotential on this center.
   26          1
                                   No pseudopotential on this center.
   27          1
                                   No pseudopotential on this center.
   28          1
                                   No pseudopotential on this center.
   29          1
                                   No pseudopotential on this center.
   30          1
                                   No pseudopotential on this center.
   31          1
                                   No pseudopotential on this center.
   32          1
                                   No pseudopotential on this center.
   33          1
                                   No pseudopotential on this center.
 ======================================================================================================
 There are   415 symmetry adapted cartesian basis functions of A   symmetry.
 There are   390 symmetry adapted basis functions of A   symmetry.
   390 basis functions,   780 primitive gaussians,   415 cartesian basis functions
   101 alpha electrons      101 beta electrons
       nuclear repulsion energy      2441.8407892550 Hartrees.
 NAtoms=   33 NActive=   33 NUniq=   33 SFac= 1.00D+00 NAtFMM=   60 NAOKFM=F Big=F
 Integral buffers will be    131072 words long.
 Raffenetti 2 integral format.
 Two-electron integral symmetry is turned on.
 One-electron integrals computed using PRISM.
   1 Symmetry operations used in ECPInt.
 ECPInt:  NShTT=    9453 NPrTT=   52090 LenC2=    7926 LenP2D=   27421.
 LDataN:  DoStor=T MaxTD1= 5 Len=  102
 NBasis=   390 RedAO= T EigKep=  7.12D-03  NBF=   390
 NBsUse=   390 1.00D-06 EigRej= -1.00D+00 NBFU=   390
 Defaulting to unpruned grid for atomic number  40.
 Defaulting to unpruned grid for atomic number  40.
 ExpMin= 2.43D-02 ExpMax= 1.61D+04 ExpMxC= 2.43D+03 IAcc=3 IRadAn=         5 AccDes= 0.00D+00
 Harris functional with IExCor=  402 and IRadAn=       5 diagonalized for initial guess.
 HarFok:  IExCor=  402 AccDes= 0.00D+00 IRadAn=         5 IDoV= 1 UseB2=F ITyADJ=14
 ICtDFT=  3500011 ScaDFX=  1.000000  1.000000  1.000000  1.000000
 Defaulting to unpruned grid for atomic number  40.
 FoFCou: FMM=F IPFlag=           0 FMFlag=      100000 FMFlg1=           0
         NFxFlg=           0 DoJE=T BraDBF=F KetDBF=T FulRan=T
         wScrn=  0.000000 ICntrl=       500 IOpCl=  0 I1Cent=   200000004 NGrid=           0
         NMat0=    1 NMatS0=      1 NMatT0=    0 NMatD0=    1 NMtDS0=    0 NMtDT0=    0
 Petite list used in FoFCou.
 Requested convergence on RMS density matrix=1.00D-08 within 128 cycles.
 Requested convergence on MAX density matrix=1.00D-06.
 Requested convergence on             energy=1.00D-06.
 No special actions if energy rises.
 Defaulting to unpruned grid for atomic number  40.
 Defaulting to unpruned grid for atomic number  40.
 Defaulting to unpruned grid for atomic number  40.
 Defaulting to unpruned grid for atomic number  40.
 Defaulting to unpruned grid for atomic number  40.
 Defaulting to unpruned grid for atomic number  40.
 Defaulting to unpruned grid for atomic number  40.
 Defaulting to unpruned grid for atomic number  40.
 Defaulting to unpruned grid for atomic number  40.
 Defaulting to unpruned grid for atomic number  40.
 Defaulting to unpruned grid for atomic number  40.
 Defaulting to unpruned grid for atomic number  40.
 Defaulting to unpruned grid for atomic number  40.
 Defaulting to unpruned grid for atomic number  40.
 Defaulting to unpruned grid for atomic number  40.
 Defaulting to unpruned grid for atomic number  40.
 SCF Done:  E(RB3LYP) =  -1687.64114928     A.U. after   16 cycles
            NFock= 16  Conv=0.41D-08     -V/T= 2.0909

 **********************************************************************

            Population analysis using the SCF Density.

 **********************************************************************

 Orbital symmetries:
       Occupied  (A) (A) (A) (A) (A) (A) (A) (A) (A) (A) (A) (A)
                 (A) (A) (A) (A) (A) (A) (A) (A) (A) (A) (A) (A)
                 (A) (A) (A) (A) (A) (A) (A) (A) (A) (A) (A) (A)
                 (A) (A) (A) (A) (A) (A) (A) (A) (A) (A) (A) (A)
                 (A) (A) (A) (A) (A) (A) (A) (A) (A) (A) (A) (A)
                 (A) (A) (A) (A) (A) (A) (A) (A) (A) (A) (A) (A)
                 (A) (A) (A) (A) (A) (A) (A) (A) (A) (A) (A) (A)
                 (A) (A) (A) (A) (A) (A) (A) (A) (A) (A) (A) (A)
                 (A) (A) (A) (A) (A)
       Virtual   (A) (A) (A) (A) (A) (A) (A) (A) (A) (A) (A) (A)
                 (A) (A) (A) (A) (A) (A) (A) (A) (A) (A) (A) (A)
                 (A) (A) (A) (A) (A) (A) (A) (A) (A) (A) (A) (A)
                 (A) (A) (A) (A) (A) (A) (A) (A) (A) (A) (A) (A)
                 (A) (A) (A) (A) (A) (A) (A) (A) (A) (A) (A) (A)
                 (A) (A) (A) (A) (A) (A) (A) (A) (A) (A) (A) (A)
                 (A) (A) (A) (A) (A) (A) (A) (A) (A) (A) (A) (A)
                 (A) (A) (A) (A) (A) (A) (A) (A) (A) (A) (A) (A)
                 (A) (A) (A) (A) (A) (A) (A) (A) (A) (A) (A) (A)
                 (A) (A) (A) (A) (A) (A) (A) (A) (A) (A) (A) (A)
                 (A) (A) (A) (A) (A) (A) (A) (A) (A) (A) (A) (A)
                 (A) (A) (A) (A) (A) (A) (A) (A) (A) (A) (A) (A)
                 (A) (A) (A) (A) (A) (A) (A) (A) (A) (A) (A) (A)
                 (A) (A) (A) (A) (A) (A) (A) (A) (A) (A) (A) (A)
                 (A) (A) (A) (A) (A) (A) (A) (A) (A) (A) (A) (A)
                 (A) (A) (A) (A) (A) (A) (A) (A) (A) (A) (A) (A)
                 (A) (A) (A) (A) (A) (A) (A) (A) (A) (A) (A) (A)
                 (A) (A) (A) (A) (A) (A) (A) (A) (A) (A) (A) (A)
                 (A) (A) (A) (A) (A) (A) (A) (A) (A) (A) (A) (A)
                 (A) (A) (A) (A) (A) (A) (A) (A) (A) (A) (A) (A)
                 (A) (A) (A) (A) (A) (A) (A) (A) (A) (A) (A) (A)
                 (A) (A) (A) (A) (A) (A) (A) (A) (A) (A) (A) (A)
                 (A) (A) (A) (A) (A) (A) (A) (A) (A) (A) (A) (A)
                 (A) (A) (A) (A) (A) (A) (A) (A) (A) (A) (A) (A)
                 (A)
 The electronic state is 1-A.
 Alpha  occ. eigenvalues --  -66.21674 -19.17980 -19.17965 -19.17817 -19.17798
 Alpha  occ. eigenvalues --  -19.17513 -19.17427 -19.17152 -19.17060 -19.16996
 Alpha  occ. eigenvalues --  -19.16995 -19.16940 -19.16604 -19.16538 -19.16485
 Alpha  occ. eigenvalues --  -19.16417 -19.16208  -5.36438  -3.72372  -3.72359
 Alpha  occ. eigenvalues --   -3.72338  -2.12222  -2.11672  -2.11610  -2.11575
 Alpha  occ. eigenvalues --   -1.32557  -1.32149  -1.31968  -1.31938  -1.31856
 Alpha  occ. eigenvalues --   -1.31708  -1.31391  -1.31332  -1.31153  -1.31130
 Alpha  occ. eigenvalues --   -1.31073  -1.30916  -1.03969  -0.98639  -0.98418
 Alpha  occ. eigenvalues --   -0.98301  -0.97806  -0.97428  -0.97241  -0.97115
 Alpha  occ. eigenvalues --   -0.97033  -0.96810  -0.96804  -0.96561  -0.96377
 Alpha  occ. eigenvalues --   -0.96338  -0.96286  -0.96093  -0.56294  -0.49538
 Alpha  occ. eigenvalues --   -0.49441  -0.48925  -0.48621  -0.48063  -0.47919
 Alpha  occ. eigenvalues --   -0.47655  -0.47578  -0.47260  -0.47184  -0.47089
 Alpha  occ. eigenvalues --   -0.46981  -0.46812  -0.46696  -0.46595  -0.41952
 Alpha  occ. eigenvalues --   -0.41646  -0.41127  -0.40488  -0.40162  -0.37237
 Alpha  occ. eigenvalues --   -0.37048  -0.36825  -0.36401  -0.36271  -0.36056
 Alpha  occ. eigenvalues --   -0.35963  -0.35786  -0.35768  -0.35671  -0.35561
 Alpha  occ. eigenvalues --   -0.35317  -0.35145  -0.34650  -0.34356  -0.33906
 Alpha  occ. eigenvalues --   -0.33861  -0.33585  -0.33212  -0.33027  -0.32735
 Alpha  occ. eigenvalues --   -0.32554  -0.32243  -0.32007  -0.31741  -0.31679
 Alpha  occ. eigenvalues --   -0.31101
 Alpha virt. eigenvalues --   -0.09252  -0.08310  -0.08090  -0.07908  -0.07678
 Alpha virt. eigenvalues --   -0.07486  -0.07326  -0.07116  -0.07014  -0.05421
 Alpha virt. eigenvalues --   -0.05049  -0.04983  -0.04748  -0.04467  -0.04222
 Alpha virt. eigenvalues --   -0.03952  -0.03777  -0.03598  -0.03527  -0.03313
 Alpha virt. eigenvalues --   -0.03104  -0.03020  -0.02606  -0.02322  -0.01249
 Alpha virt. eigenvalues --   -0.00492  -0.00249   0.00188   0.01383   0.02130
 Alpha virt. eigenvalues --    0.02684   0.03238   0.04228   0.04733   0.04813
 Alpha virt. eigenvalues --    0.05534   0.09362   0.09906   0.10112   0.10925
 Alpha virt. eigenvalues --    0.11178   0.11906   0.12703   0.13157   0.13675
 Alpha virt. eigenvalues --    0.13801   0.14182   0.14361   0.15469   0.16415
 Alpha virt. eigenvalues --    0.16813   0.17130   0.18015   0.18127   0.18757
 Alpha virt. eigenvalues --    0.19095   0.19546   0.19746   0.20648   0.20721
 Alpha virt. eigenvalues --    0.21498   0.21595   0.21932   0.22116   0.22690
 Alpha virt. eigenvalues --    0.22934   0.24053   0.24204   0.24678   0.25023
 Alpha virt. eigenvalues --    0.25490   0.25711   0.27523   0.27894   0.28421
 Alpha virt. eigenvalues --    0.29315   0.29504   0.30515   0.30781   0.31434
 Alpha virt. eigenvalues --    0.32588   0.34200   0.36538   0.39204   0.43181
 Alpha virt. eigenvalues --    0.46731   0.50085   0.51388   0.63258   0.63381
 Alpha virt. eigenvalues --    0.70142   0.78615   0.80087   0.80894   0.81761
 Alpha virt. eigenvalues --    0.82051   0.83176   0.83401   0.84372   0.84595
 Alpha virt. eigenvalues --    0.85328   0.85654   0.86589   0.88179   0.89137
 Alpha virt. eigenvalues --    0.90883   0.91075   0.92556   0.92965   0.94062
 Alpha virt. eigenvalues --    0.95235   0.95935   0.96601   0.97358   0.98147
 Alpha virt. eigenvalues --    0.98511   0.98757   0.99489   1.00437   1.00806
 Alpha virt. eigenvalues --    1.01362   1.01808   1.02572   1.02952   1.03374
 Alpha virt. eigenvalues --    1.04165   1.04995   1.05239   1.06445   1.06724
 Alpha virt. eigenvalues --    1.07322   1.07556   1.08680   1.09448   1.09837
 Alpha virt. eigenvalues --    1.10926   1.12204   1.13094   1.13415   1.14505
 Alpha virt. eigenvalues --    1.15446   1.16307   1.17348   1.17843   1.18471
 Alpha virt. eigenvalues --    1.19065   1.19782   1.21245   1.21523   1.22369
 Alpha virt. eigenvalues --    1.23208   1.24264   1.25651   1.35749   1.37388
 Alpha virt. eigenvalues --    1.37841   1.40845   1.43361   1.45776   1.46436
 Alpha virt. eigenvalues --    1.46991   1.47278   1.48817   1.49601   1.50033
 Alpha virt. eigenvalues --    1.51274   1.53241   1.54172   1.54408   1.55384
 Alpha virt. eigenvalues --    1.55598   1.55743   1.56708   1.57185   1.58195
 Alpha virt. eigenvalues --    1.58256   1.58561   1.58651   1.58902   1.59555
 Alpha virt. eigenvalues --    1.60019   1.60484   1.60582   1.61113   1.61178
 Alpha virt. eigenvalues --    1.61700   1.61946   1.63628   1.64338   1.64995
 Alpha virt. eigenvalues --    1.65549   1.66484   1.69689   1.70271   1.70494
 Alpha virt. eigenvalues --    1.71749   1.73795   1.74963   1.75150   1.75531
 Alpha virt. eigenvalues --    1.75697   1.76064   1.77424   1.77542   1.77764
 Alpha virt. eigenvalues --    1.77964   1.78296   1.78800   1.79226   1.79496
 Alpha virt. eigenvalues --    1.80299   1.80424   1.81234   1.81567   1.82059
 Alpha virt. eigenvalues --    1.82545   1.82906   1.83241   1.83501   1.83757
 Alpha virt. eigenvalues --    1.84123   1.84258   1.84438   1.84645   1.85414
 Alpha virt. eigenvalues --    1.86215   1.86841   1.87180   2.05826   2.07274
 Alpha virt. eigenvalues --    2.07909   2.24249   2.24789   2.30562   2.31665
 Alpha virt. eigenvalues --    2.31896   2.31960   2.32054   2.32264   2.32435
 Alpha virt. eigenvalues --    2.32823   2.32854   2.33168   2.33502   2.33843
 Alpha virt. eigenvalues --    2.49207   2.57363   2.57433   2.58073   2.58562
 Alpha virt. eigenvalues --    2.58745   2.58969   2.59030   2.59163   2.59519
 Alpha virt. eigenvalues --    2.59548   2.59606   2.59742   2.59783   2.59823
 Alpha virt. eigenvalues --    2.59931   2.60086   2.60114   2.60188   2.60289
 Alpha virt. eigenvalues --    2.60377   2.60485   2.60587   2.60932   2.61176
 Alpha virt. eigenvalues --    2.75543   2.75974   2.76267   3.24554   3.37819
 Alpha virt. eigenvalues --    3.38589   3.39081   3.39281   3.40035   3.40290
 Alpha virt. eigenvalues --    3.40642   3.40920   3.42239   3.42807   3.43197
 Alpha virt. eigenvalues --    3.50309   4.47815   4.77163   5.06126
          Condensed to atoms (all electrons):
               1          2          3          4          5          6
     1  Si  11.351403   0.342062   0.342180   0.357661   0.375214  -0.033414
     2  O    0.342062   8.265926  -0.021200  -0.021631  -0.019663   0.008615
     3  O    0.342180  -0.021200   8.274913  -0.018685  -0.020276   0.003816
     4  O    0.357661  -0.021631  -0.018685   8.241212  -0.017719  -0.004818
     5  O    0.375214  -0.019663  -0.020276  -0.017719   8.231305   0.181924
     6  Zr  -0.033414   0.008615   0.003816  -0.004818   0.181924   9.743336
     7  Zr  -0.033279   0.015491  -0.004842   0.190976  -0.002095  -0.010540
     8  Zr  -0.042549   0.178698   0.021432  -0.001500  -0.002327  -0.007087
     9  Zr  -0.033198  -0.003062   0.173114   0.010110   0.001941  -0.003406
    10  O   -0.010246  -0.000705   0.000000   0.000238   0.000000  -0.000327
    11  O   -0.002071   0.000000  -0.000000   0.000325   0.000001   0.000091
    12  O   -0.001968   0.000000   0.000000   0.000247  -0.000000  -0.000165
    13  O   -0.004105   0.000000   0.000576   0.000000  -0.000002   0.002560
    14  O   -0.000291   0.000000   0.000104   0.000000  -0.000000  -0.000649
    15  O   -0.005418   0.000000   0.000499  -0.000054   0.000000  -0.000359
    16  O    0.000235   0.000672  -0.000000   0.000000   0.000000  -0.000357
    17  O   -0.002726   0.000266  -0.000026  -0.000006   0.000000  -0.000154
    18  O   -0.005225   0.000077  -0.000082   0.000000   0.000000  -0.000312
    19  O    0.000354  -0.000000  -0.000000   0.000000   0.000625   0.248910
    20  O   -0.005660  -0.000086   0.000001   0.000000   0.000218   0.260022
    21  O   -0.008385   0.000001  -0.000037   0.000000   0.000279   0.247810
    22  H   -0.000890   0.000001  -0.000000  -0.001080  -0.000000  -0.000015
    23  H   -0.000676   0.000002  -0.000000  -0.000938  -0.000006   0.000372
    24  H    0.000257  -0.000000  -0.000087  -0.000021   0.000001   0.000156
    25  H   -0.000523   0.000002  -0.001262   0.000000  -0.000000   0.000128
    26  H    0.000143  -0.000000  -0.000295   0.000000   0.000001   0.000330
    27  H    0.000647  -0.000072   0.000000  -0.000390   0.000001   0.000163
    28  H    0.000500  -0.001399   0.000028  -0.000013  -0.000000   0.000140
    29  H   -0.000049  -0.000013  -0.000000   0.000000  -0.000000   0.000038
    30  H    0.000150  -0.001210  -0.000008   0.000000   0.000005   0.000852
    31  H   -0.001380   0.000611  -0.000001   0.000001  -0.001343  -0.020005
    32  H   -0.000079   0.000000  -0.000000  -0.000000  -0.000217  -0.018713
    33  H   -0.000280   0.000001  -0.000099   0.000000  -0.000795  -0.022354
               7          8          9         10         11         12
     1  Si  -0.033279  -0.042549  -0.033198  -0.010246  -0.002071  -0.001968
     2  O    0.015491   0.178698  -0.003062  -0.000705   0.000000   0.000000
     3  O   -0.004842   0.021432   0.173114   0.000000  -0.000000   0.000000
     4  O    0.190976  -0.001500   0.010110   0.000238   0.000325   0.000247
     5  O   -0.002095  -0.002327   0.001941   0.000000   0.000001  -0.000000
     6  Zr  -0.010540  -0.007087  -0.003406  -0.000327   0.000091  -0.000165
     7  Zr   9.787946  -0.012795  -0.006974   0.237010   0.257552   0.253610
     8  Zr  -0.012795   9.769622  -0.005890   0.026710  -0.000389  -0.000543
     9  Zr  -0.006974  -0.005890   9.728144  -0.000414  -0.000404   0.000049
    10  O    0.237010   0.026710  -0.000414   8.154906  -0.000080   0.000406
    11  O    0.257552  -0.000389  -0.000404  -0.000080   8.144819   0.000623
    12  O    0.253610  -0.000543   0.000049   0.000406   0.000623   8.147544
    13  O   -0.000239  -0.000288   0.249775   0.000000  -0.000000   0.000000
    14  O   -0.000303   0.000201   0.252664  -0.000000   0.000000   0.000000
    15  O    0.004114  -0.000629   0.250033  -0.000000   0.000000  -0.000004
    16  O   -0.001482   0.245541  -0.000112  -0.000043   0.000000  -0.000000
    17  O    0.003759   0.249888  -0.000128  -0.000778  -0.000000   0.000000
    18  O   -0.000187   0.247584   0.001590  -0.000000   0.000000   0.000000
    19  O   -0.000070  -0.000186  -0.000442  -0.000000  -0.000000  -0.000000
    20  O   -0.000313   0.001381  -0.000434  -0.000000  -0.000000   0.000000
    21  O   -0.000251  -0.000515   0.007855   0.000000  -0.000000   0.000000
    22  H   -0.023022   0.000514   0.001324  -0.000189  -0.000032   0.265960
    23  H   -0.026232   0.000295   0.000038  -0.000738   0.264399  -0.000008
    24  H    0.000206   0.000064  -0.019867  -0.000000   0.000000   0.000000
    25  H    0.000020   0.000765  -0.018707   0.000000   0.000000  -0.000000
    26  H    0.000020   0.000102  -0.019938  -0.000000  -0.000000   0.000000
    27  H   -0.029221   0.001125   0.000070   0.268042  -0.001869   0.000011
    28  H    0.001978  -0.025580   0.001138  -0.000453   0.000000  -0.000094
    29  H    0.000274  -0.017074   0.000020  -0.000004   0.000000  -0.000000
    30  H    0.000062  -0.023890   0.000579  -0.000000  -0.000000   0.000000
    31  H    0.000046   0.003238   0.000134  -0.000000  -0.000000   0.000000
    32  H    0.000043   0.000025   0.000033   0.000000   0.000000  -0.000000
    33  H    0.000044   0.000098   0.003080   0.000000   0.000000  -0.000000
              13         14         15         16         17         18
     1  Si  -0.004105  -0.000291  -0.005418   0.000235  -0.002726  -0.005225
     2  O    0.000000   0.000000   0.000000   0.000672   0.000266   0.000077
     3  O    0.000576   0.000104   0.000499  -0.000000  -0.000026  -0.000082
     4  O    0.000000   0.000000  -0.000054   0.000000  -0.000006   0.000000
     5  O   -0.000002  -0.000000   0.000000   0.000000   0.000000   0.000000
     6  Zr   0.002560  -0.000649  -0.000359  -0.000357  -0.000154  -0.000312
     7  Zr  -0.000239  -0.000303   0.004114  -0.001482   0.003759  -0.000187
     8  Zr  -0.000288   0.000201  -0.000629   0.245541   0.249888   0.247584
     9  Zr   0.249775   0.252664   0.250033  -0.000112  -0.000128   0.001590
    10  O    0.000000  -0.000000  -0.000000  -0.000043  -0.000778  -0.000000
    11  O   -0.000000   0.000000   0.000000   0.000000  -0.000000   0.000000
    12  O    0.000000   0.000000  -0.000004  -0.000000   0.000000   0.000000
    13  O    8.169416   0.000249   0.000126   0.000000  -0.000000  -0.000000
    14  O    0.000249   8.153103   0.000426   0.000000   0.000000  -0.000000
    15  O    0.000126   0.000426   8.166457   0.000000   0.000000  -0.000000
    16  O    0.000000   0.000000   0.000000   8.170754   0.000212   0.000155
    17  O   -0.000000   0.000000   0.000000   0.000212   8.153231   0.000557
    18  O   -0.000000  -0.000000  -0.000000   0.000155   0.000557   8.170801
    19  O    0.000000   0.000000  -0.000000   0.000000   0.000000  -0.000000
    20  O   -0.000000   0.000000   0.000000   0.000000  -0.000000  -0.000000
    21  O   -0.000731   0.000000  -0.000000   0.000000   0.000000  -0.000000
    22  H   -0.000000   0.000000   0.000056  -0.000000  -0.000005   0.000000
    23  H   -0.000000   0.000000   0.000000  -0.000000  -0.000000   0.000000
    24  H   -0.000983  -0.000021   0.266769   0.000000   0.000000   0.000000
    25  H   -0.000019   0.267276  -0.000186  -0.000000  -0.000000   0.000005
    26  H    0.267171  -0.000901  -0.000005   0.000000  -0.000000   0.000000
    27  H    0.000000  -0.000000   0.000000   0.000024  -0.000004  -0.000000
    28  H   -0.000000   0.000000  -0.000000  -0.000034   0.265198  -0.000119
    29  H   -0.000000   0.000000  -0.000000   0.267287  -0.000734  -0.000158
    30  H    0.000000  -0.000000   0.000000  -0.000427   0.000047   0.263649
    31  H   -0.000000  -0.000000   0.000000  -0.000009  -0.000000  -0.000016
    32  H    0.000000   0.000000  -0.000000  -0.000000   0.000000  -0.000000
    33  H    0.005573   0.000000  -0.000000  -0.000000   0.000000  -0.000000
              19         20         21         22         23         24
     1  Si   0.000354  -0.005660  -0.008385  -0.000890  -0.000676   0.000257
     2  O   -0.000000  -0.000086   0.000001   0.000001   0.000002  -0.000000
     3  O   -0.000000   0.000001  -0.000037  -0.000000  -0.000000  -0.000087
     4  O    0.000000   0.000000   0.000000  -0.001080  -0.000938  -0.000021
     5  O    0.000625   0.000218   0.000279  -0.000000  -0.000006   0.000001
     6  Zr   0.248910   0.260022   0.247810  -0.000015   0.000372   0.000156
     7  Zr  -0.000070  -0.000313  -0.000251  -0.023022  -0.026232   0.000206
     8  Zr  -0.000186   0.001381  -0.000515   0.000514   0.000295   0.000064
     9  Zr  -0.000442  -0.000434   0.007855   0.001324   0.000038  -0.019867
    10  O   -0.000000  -0.000000   0.000000  -0.000189  -0.000738  -0.000000
    11  O   -0.000000  -0.000000  -0.000000  -0.000032   0.264399   0.000000
    12  O   -0.000000   0.000000   0.000000   0.265960  -0.000008   0.000000
    13  O    0.000000  -0.000000  -0.000731  -0.000000  -0.000000  -0.000983
    14  O    0.000000   0.000000   0.000000   0.000000   0.000000  -0.000021
    15  O   -0.000000   0.000000  -0.000000   0.000056   0.000000   0.266769
    16  O    0.000000   0.000000   0.000000  -0.000000  -0.000000   0.000000
    17  O    0.000000  -0.000000   0.000000  -0.000005  -0.000000   0.000000
    18  O   -0.000000  -0.000000  -0.000000   0.000000   0.000000   0.000000
    19  O    8.163175   0.000170   0.000352  -0.000000   0.000000  -0.000000
    20  O    0.000170   8.154597   0.000669   0.000000   0.000000   0.000000
    21  O    0.000352   0.000669   8.173425  -0.000000   0.000000   0.000000
    22  H   -0.000000   0.000000  -0.000000   0.422530  -0.000002  -0.000004
    23  H    0.000000   0.000000   0.000000  -0.000002   0.434512  -0.000000
    24  H   -0.000000   0.000000   0.000000  -0.000004  -0.000000   0.417514
    25  H    0.000000  -0.000000   0.000000   0.000000   0.000000   0.000002
    26  H    0.000000  -0.000000   0.000359   0.000000   0.000000   0.000039
    27  H    0.000000  -0.000000   0.000000   0.000008  -0.000348  -0.000000
    28  H    0.000000  -0.000000   0.000000  -0.000017  -0.000000   0.000000
    29  H    0.000000  -0.000000  -0.000000  -0.000000   0.000000  -0.000000
    30  H   -0.000000  -0.000002  -0.000001   0.000000  -0.000000   0.000000
    31  H   -0.000010   0.264482  -0.000192   0.000000  -0.000000   0.000000
    32  H    0.264979  -0.000775   0.000023  -0.000000  -0.000000   0.000000
    33  H   -0.000441   0.000050   0.261022  -0.000000  -0.000000   0.000000
              25         26         27         28         29         30
     1  Si  -0.000523   0.000143   0.000647   0.000500  -0.000049   0.000150
     2  O    0.000002  -0.000000  -0.000072  -0.001399  -0.000013  -0.001210
     3  O   -0.001262  -0.000295   0.000000   0.000028  -0.000000  -0.000008
     4  O    0.000000   0.000000  -0.000390  -0.000013   0.000000   0.000000
     5  O   -0.000000   0.000001   0.000001  -0.000000  -0.000000   0.000005
     6  Zr   0.000128   0.000330   0.000163   0.000140   0.000038   0.000852
     7  Zr   0.000020   0.000020  -0.029221   0.001978   0.000274   0.000062
     8  Zr   0.000765   0.000102   0.001125  -0.025580  -0.017074  -0.023890
     9  Zr  -0.018707  -0.019938   0.000070   0.001138   0.000020   0.000579
    10  O    0.000000  -0.000000   0.268042  -0.000453  -0.000004  -0.000000
    11  O    0.000000  -0.000000  -0.001869   0.000000   0.000000  -0.000000
    12  O   -0.000000   0.000000   0.000011  -0.000094  -0.000000   0.000000
    13  O   -0.000019   0.267171   0.000000  -0.000000  -0.000000   0.000000
    14  O    0.267276  -0.000901  -0.000000   0.000000   0.000000  -0.000000
    15  O   -0.000186  -0.000005   0.000000  -0.000000  -0.000000   0.000000
    16  O   -0.000000   0.000000   0.000024  -0.000034   0.267287  -0.000427
    17  O   -0.000000  -0.000000  -0.000004   0.265198  -0.000734   0.000047
    18  O    0.000005   0.000000  -0.000000  -0.000119  -0.000158   0.263649
    19  O    0.000000   0.000000   0.000000   0.000000   0.000000  -0.000000
    20  O   -0.000000  -0.000000  -0.000000  -0.000000  -0.000000  -0.000002
    21  O    0.000000   0.000359   0.000000   0.000000  -0.000000  -0.000001
    22  H    0.000000   0.000000   0.000008  -0.000017  -0.000000   0.000000
    23  H    0.000000   0.000000  -0.000348  -0.000000   0.000000  -0.000000
    24  H    0.000002   0.000039  -0.000000   0.000000  -0.000000   0.000000
    25  H    0.414811   0.000058   0.000000  -0.000003   0.000000  -0.000004
    26  H    0.000058   0.412725  -0.000000   0.000000  -0.000000   0.000000
    27  H    0.000000  -0.000000   0.426918   0.000041   0.000000   0.000000
    28  H   -0.000003   0.000000   0.000041   0.427615   0.000032   0.000005
    29  H    0.000000  -0.000000   0.000000   0.000032   0.416547   0.000027
    30  H   -0.000004   0.000000   0.000000   0.000005   0.000027   0.437476
    31  H   -0.000000   0.000000  -0.000000   0.000000   0.000000  -0.000033
    32  H   -0.000000  -0.000000   0.000000   0.000000   0.000000   0.000000
    33  H    0.000000   0.000543   0.000000   0.000000  -0.000000  -0.000000
              31         32         33
     1  Si  -0.001380  -0.000079  -0.000280
     2  O    0.000611   0.000000   0.000001
     3  O   -0.000001  -0.000000  -0.000099
     4  O    0.000001  -0.000000   0.000000
     5  O   -0.001343  -0.000217  -0.000795
     6  Zr  -0.020005  -0.018713  -0.022354
     7  Zr   0.000046   0.000043   0.000044
     8  Zr   0.003238   0.000025   0.000098
     9  Zr   0.000134   0.000033   0.003080
    10  O   -0.000000   0.000000   0.000000
    11  O   -0.000000   0.000000   0.000000
    12  O    0.000000  -0.000000  -0.000000
    13  O   -0.000000   0.000000   0.005573
    14  O   -0.000000   0.000000   0.000000
    15  O    0.000000  -0.000000  -0.000000
    16  O   -0.000009  -0.000000  -0.000000
    17  O   -0.000000   0.000000   0.000000
    18  O   -0.000016  -0.000000  -0.000000
    19  O   -0.000010   0.264979  -0.000441
    20  O    0.264482  -0.000775   0.000050
    21  O   -0.000192   0.000023   0.261022
    22  H    0.000000  -0.000000  -0.000000
    23  H   -0.000000  -0.000000  -0.000000
    24  H    0.000000   0.000000   0.000000
    25  H   -0.000000  -0.000000   0.000000
    26  H    0.000000  -0.000000   0.000543
    27  H   -0.000000   0.000000   0.000000
    28  H    0.000000   0.000000   0.000000
    29  H    0.000000   0.000000  -0.000000
    30  H   -0.000033   0.000000  -0.000000
    31  H    0.420627   0.000055   0.000008
    32  H    0.000055   0.420971   0.000025
    33  H    0.000008   0.000025   0.428163
 Mulliken charges:
               1
     1  Si   1.421604
     2  O   -0.743384
     3  O   -0.749760
     4  O   -0.733914
     5  O   -0.727071
     6  Zr   1.423413
     7  Zr   1.398695
     8  Zr   1.393959
     9  Zr   1.431285
    10  O   -0.673336
    11  O   -0.662966
    12  O   -0.665669
    13  O   -0.689078
    14  O   -0.671858
    15  O   -0.681826
    16  O   -0.682415
    17  O   -0.668595
    18  O   -0.678318
    19  O   -0.677416
    20  O   -0.674319
    21  O   -0.681686
    22  H    0.334864
    23  H    0.329330
    24  H    0.335975
    25  H    0.337637
    26  H    0.339647
    27  H    0.334856
    28  H    0.331036
    29  H    0.333807
    30  H    0.322725
    31  H    0.333786
    32  H    0.333629
    33  H    0.325362
 Sum of Mulliken charges =  -0.00000
 Mulliken charges with hydrogens summed into heavy atoms:
               1
     1  Si   1.421604
     2  O   -0.743384
     3  O   -0.749760
     4  O   -0.733914
     5  O   -0.727071
     6  Zr   1.423413
     7  Zr   1.398695
     8  Zr   1.393959
     9  Zr   1.431285
    10  O   -0.338479
    11  O   -0.333636
    12  O   -0.330805
    13  O   -0.349431
    14  O   -0.334222
    15  O   -0.345851
    16  O   -0.348608
    17  O   -0.337559
    18  O   -0.355593
    19  O   -0.343788
    20  O   -0.340533
    21  O   -0.356323
 Electronic spatial extent (au):  <R**2>=          10673.5129
 Charge=             -0.0000 electrons
 Dipole moment (field-independent basis, Debye):
    X=              1.2333    Y=             -1.3683    Z=             -0.6054  Tot=              1.9390
 Quadrupole moment (field-independent basis, Debye-Ang):
   XX=           -223.8860   YY=           -204.7269   ZZ=           -213.9703
   XY=             12.5451   XZ=             -4.9015   YZ=              6.1398
 Traceless Quadrupole moment (field-independent basis, Debye-Ang):
   XX=             -9.6916   YY=              9.4675   ZZ=              0.2241
   XY=             12.5451   XZ=             -4.9015   YZ=              6.1398
 Octapole moment (field-independent basis, Debye-Ang**2):
  XXX=             33.8458  YYY=              5.3831  ZZZ=             -4.8550  XYY=              4.5373
  XXY=            -16.3469  XXZ=             47.3662  XZZ=              4.0694  YZZ=            -56.4164
  YYZ=            -44.4520  XYZ=            -23.3677
 Hexadecapole moment (field-independent basis, Debye-Ang**3):
 XXXX=          -7935.3272 YYYY=          -5438.8841 ZZZZ=          -4680.3424 XXXY=            359.6338
 XXXZ=            -52.1804 YYYX=             91.0749 YYYZ=            -40.2097 ZZZX=           -155.2309
 ZZZY=             69.9689 XXYY=          -2079.5213 XXZZ=          -2116.8008 YYZZ=          -1467.8360
 XXYZ=             70.2128 YYXZ=           -154.0917 ZZXY=             62.6764
 N-N= 2.441840789255D+03 E-N=-8.801050842853D+03  KE= 1.546976277856D+03
   1 Symmetry operations used in ECPInt.
 ECPInt:  NShTT=    9453 NPrTT=   52090 LenC2=    7926 LenP2D=   27421.
 LDataN:  DoStor=T MaxTD1= 6 Len=  172
 Calling FoFJK, ICntrl=      2127 FMM=F ISym2X=0 I1Cent= 0 IOpClX= 0 NMat=1 NMatS=1 NMatT=0.
 Defaulting to unpruned grid for atomic number  40.
 Defaulting to unpruned grid for atomic number  40.
 Defaulting to unpruned grid for atomic number  40.
 Defaulting to unpruned grid for atomic number  40.
 Defaulting to unpruned grid for atomic number  40.
 Defaulting to unpruned grid for atomic number  40.
 Defaulting to unpruned grid for atomic number  40.
 Defaulting to unpruned grid for atomic number  40.
 Defaulting to unpruned grid for atomic number  40.
 Defaulting to unpruned grid for atomic number  40.
 Defaulting to unpruned grid for atomic number  40.
 Defaulting to unpruned grid for atomic number  40.
 Defaulting to unpruned grid for atomic number  40.
 Defaulting to unpruned grid for atomic number  40.
 Defaulting to unpruned grid for atomic number  40.
 Defaulting to unpruned grid for atomic number  40.
 ***** Axes restored to original set *****
 -------------------------------------------------------------------
 Center     Atomic                   Forces (Hartrees/Bohr)
 Number     Number              X              Y              Z
 -------------------------------------------------------------------
      1       14          -0.006859448   -0.005969974    0.000631728
      2        8           0.058555057    0.005113648   -0.005380518
      3        8          -0.022689472    0.045767028   -0.021804621
      4        8          -0.007441670    0.001262161    0.050487590
      5        8          -0.013346590   -0.038352361   -0.029330072
      6       40          -0.002443498   -0.024798729   -0.036463966
      7       40          -0.003433556    0.004445242    0.050441825
      8       40           0.030804669    0.021268094    0.009630816
      9       40          -0.028750347    0.027821081   -0.008938549
     10        8          -0.044439614   -0.023693510   -0.007487780
     11        8           0.026546031    0.028311296   -0.040158925
     12        8           0.021188217   -0.027929168   -0.046099083
     13        8           0.042913996    0.026509859    0.009899013
     14        8           0.002966978   -0.044660309    0.036077342
     15        8           0.003873558   -0.027271445   -0.045804750
     16        8          -0.029345828    0.043337575   -0.000327301
     17        8          -0.018849929   -0.037252884   -0.035764770
     18        8          -0.011463047   -0.038447750    0.031957207
     19        8           0.045390229    0.028216059   -0.002080694
     20        8          -0.038898642    0.032536456    0.023016520
     21        8          -0.000474224   -0.022539755    0.047308400
     22        1          -0.003967056   -0.004936717    0.017991010
     23        1          -0.008919349    0.004935222    0.015975878
     24        1           0.012219083    0.009895832    0.008772144
     25        1          -0.013278641    0.006588719   -0.012492668
     26        1          -0.011899320   -0.006090170    0.011380737
     27        1           0.004878865    0.018239402    0.001475433
     28        1           0.020168447    0.006530774    0.002278214
     29        1          -0.004404676   -0.016904425   -0.006086852
     30        1           0.007321123    0.018230764    0.002641807
     31        1          -0.001293004   -0.017659997   -0.008985661
     32        1          -0.016691118    0.006216758   -0.001295014
     33        1           0.012062776    0.001281224   -0.011464440
 -------------------------------------------------------------------
 Cartesian Forces:  Max     0.058555057 RMS     0.024352206

 GradGradGradGradGradGradGradGradGradGradGradGradGradGradGradGradGradGrad
 Berny optimization.
 FormGI is forming the generalized inverse of G from B-inverse, IUseBI=4.
 Internal  Forces:  Max     0.052756008 RMS     0.016975276
 Search for a local minimum.
 Step number   1 out of a maximum of  148
 All quantities printed in internal units (Hartrees-Bohrs-Radians)
 Mixed Optimization -- RFO/linear search
 Second derivative matrix not updated -- first step.
 ITU=  0
     Eigenvalues ---    0.00230   0.00230   0.00230   0.00230   0.00230
     Eigenvalues ---    0.00230   0.00230   0.00230   0.00230   0.00230
     Eigenvalues ---    0.00230   0.00230   0.00230   0.00230   0.00230
     Eigenvalues ---    0.00230   0.04454   0.04466   0.04467   0.04488
     Eigenvalues ---    0.09967   0.09980   0.10027   0.10027   0.10061
     Eigenvalues ---    0.10074   0.10127   0.10149   0.10239   0.10308
     Eigenvalues ---    0.10314   0.10388   0.12396   0.12730   0.12921
     Eigenvalues ---    0.13771   0.13780   0.13785   0.13785   0.13785
     Eigenvalues ---    0.13786   0.13787   0.13788   0.13792   0.13794
     Eigenvalues ---    0.13800   0.13807   0.16000   0.16000   0.16000
     Eigenvalues ---    0.16000   0.16000   0.16000   0.16000   0.16000
     Eigenvalues ---    0.16000   0.16000   0.16000   0.16000   0.18659
     Eigenvalues ---    0.18702   0.18705   0.18761   0.20007   0.20020
     Eigenvalues ---    0.20022   0.20033   0.20059   0.20069   0.20071
     Eigenvalues ---    0.20083   0.20859   0.20926   0.25000   0.25000
     Eigenvalues ---    0.25000   0.25000   0.49381   0.49405   0.49411
     Eigenvalues ---    0.49428   0.49431   0.49450   0.49452   0.49454
     Eigenvalues ---    0.49460   0.49462   0.49479   0.49481   0.52928
     Eigenvalues ---    0.53124   0.53132   0.53463
 RFO step:  Lambda=-1.23410026D-01 EMin= 2.30000000D-03
 Linear search not attempted -- first point.
 Maximum step size (   0.300) exceeded in Quadratic search.
    -- Step size scaled by   0.463
 Iteration  1 RMS(Cart)=  0.03691997 RMS(Int)=  0.00036030
 Iteration  2 RMS(Cart)=  0.00047709 RMS(Int)=  0.00000875
 Iteration  3 RMS(Cart)=  0.00000012 RMS(Int)=  0.00000874
 Variable       Old X    -DE/DX   Delta X   Delta X   Delta X     New X
                                 (Linear)    (Quad)   (Total)
    R1        3.00224   0.05276   0.00000   0.03715   0.03715   3.03939
    R2        3.00538   0.04718   0.00000   0.03339   0.03339   3.03877
    R3        3.00721   0.04537   0.00000   0.03221   0.03221   3.03942
    R4        3.00531   0.04301   0.00000   0.03043   0.03043   3.03574
    R5        3.75349  -0.00680   0.00000  -0.01012  -0.01012   3.74337
    R6        3.75561  -0.01028   0.00000  -0.01534  -0.01534   3.74027
    R7        3.75733  -0.00983   0.00000  -0.01468  -0.01468   3.74264
    R8        3.75573  -0.01025   0.00000  -0.01529  -0.01529   3.74044
    R9        3.98083  -0.04474   0.00000  -0.07935  -0.07935   3.90149
   R10        3.98015  -0.04480   0.00000  -0.07942  -0.07942   3.90072
   R11        3.98007  -0.04262   0.00000  -0.07555  -0.07555   3.90452
   R12        3.98135  -0.03991   0.00000  -0.07082  -0.07082   3.91053
   R13        3.98053  -0.04414   0.00000  -0.07827  -0.07827   3.90226
   R14        3.98058  -0.04603   0.00000  -0.08163  -0.08163   3.89895
   R15        3.97930  -0.04325   0.00000  -0.07663  -0.07663   3.90268
   R16        3.98048  -0.04534   0.00000  -0.08040  -0.08040   3.90008
   R17        3.98038  -0.04003   0.00000  -0.07098  -0.07098   3.90941
   R18        3.98054  -0.04257   0.00000  -0.07550  -0.07550   3.90504
   R19        3.98055  -0.04545   0.00000  -0.08061  -0.08061   3.89994
   R20        3.97971  -0.04364   0.00000  -0.07735  -0.07735   3.90236
   R21        1.87122  -0.01625   0.00000  -0.01218  -0.01218   1.85904
   R22        1.87124  -0.01607   0.00000  -0.01205  -0.01205   1.85919
   R23        1.87112  -0.01582   0.00000  -0.01186  -0.01186   1.85926
[...]
 Alpha virt. eigenvalues --    2.72699   2.74268   2.74982   3.39955   3.41077
 Alpha virt. eigenvalues --    3.41576   3.42068   3.42840   3.44190   3.44588
 Alpha virt. eigenvalues --    3.44929   3.45441   3.53283   3.54134   3.55319
 Alpha virt. eigenvalues --    4.13535   5.15204   5.69005   5.98460
          Condensed to atoms (all electrons):
               1          2          3          4          5          6
     1  Si  11.267919   0.323259   0.332554   0.333281   0.386555  -0.001793
     2  O    0.323259   8.308417  -0.018921  -0.017770  -0.014985  -0.000622
     3  O    0.332554  -0.018921   8.298784  -0.015674  -0.017053   0.007710
     4  O    0.333281  -0.017770  -0.015674   8.285099  -0.015319  -0.004139
     5  O    0.386555  -0.014985  -0.017053  -0.015319   8.246399   0.170484
     6  Zr  -0.001793  -0.000622   0.007710  -0.004139   0.170484   9.721572
     7  Zr  -0.002318  -0.002380   0.001426   0.179753  -0.001881  -0.004445
     8  Zr  -0.011420   0.173017  -0.001087   0.010722  -0.002788  -0.002456
     9  Zr  -0.017223   0.019415   0.178660  -0.001601  -0.002557   0.002739
    10  O   -0.002251   0.000009   0.000001   0.000989   0.000000  -0.000021
    11  O   -0.000937   0.000000   0.000000   0.000961   0.000000  -0.000009
    12  O   -0.001009   0.000000   0.000000   0.001252   0.000000  -0.000124
    13  O   -0.003971  -0.000012   0.000513  -0.000000   0.000010   0.003164
    14  O   -0.005606  -0.000246   0.001372   0.000000   0.000000   0.000257
    15  O    0.000461  -0.000000   0.000790   0.000000  -0.000000  -0.000175
    16  O    0.000293   0.000996  -0.000000   0.000000   0.000000  -0.000057
    17  O   -0.006035   0.001302   0.000001  -0.000235   0.000000  -0.000136
    18  O   -0.001236   0.000805   0.000005   0.000000   0.000000  -0.000186
    19  O   -0.000879  -0.000000   0.000000   0.000000   0.000548   0.213625
    20  O   -0.001242   0.000000   0.000000   0.000000   0.000546   0.217980
    21  O   -0.007819   0.000001  -0.000257   0.000000   0.000925   0.225845
    22  H   -0.000106  -0.000000  -0.000000  -0.000310   0.000000  -0.000020
    23  H   -0.000150   0.000000  -0.000000  -0.000323   0.000000  -0.000010
    24  H   -0.000049  -0.000000  -0.000189   0.000000  -0.000000  -0.000058
    25  H   -0.000098  -0.000680  -0.000391   0.000002   0.000000  -0.000046
    26  H   -0.000006   0.000001   0.000015   0.000000  -0.000001   0.000501
    27  H    0.000038  -0.000000   0.000000   0.000025  -0.000000   0.000006
    28  H   -0.000007  -0.000283   0.000002  -0.000711   0.000000   0.000030
    29  H   -0.000033  -0.000031  -0.000000   0.000000  -0.000000  -0.000015
    30  H    0.000069   0.000048  -0.000000   0.000000   0.000000   0.000030
    31  H   -0.000037  -0.000000   0.000000   0.000000  -0.000039  -0.017204
    32  H    0.000027  -0.000000   0.000000  -0.000000  -0.000082  -0.016211
    33  H   -0.000181   0.000002  -0.000786   0.000000  -0.000316  -0.014012
               7          8          9         10         11         12
     1  Si  -0.002318  -0.011420  -0.017223  -0.002251  -0.000937  -0.001009
     2  O   -0.002380   0.173017   0.019415   0.000009   0.000000   0.000000
     3  O    0.001426  -0.001087   0.178660   0.000001   0.000000   0.000000
     4  O    0.179753   0.010722  -0.001601   0.000989   0.000961   0.001252
     5  O   -0.001881  -0.002788  -0.002557   0.000000   0.000000   0.000000
     6  Zr  -0.004445  -0.002456   0.002739  -0.000021  -0.000009  -0.000124
     7  Zr   9.709729   0.002026  -0.004909   0.171238   0.213510   0.215517
     8  Zr   0.002026   9.726345  -0.000719   0.003313   0.000136   0.000223
     9  Zr  -0.004909  -0.000719   9.744066  -0.000160   0.000010   0.000263
    10  O    0.171238   0.003313  -0.000160   8.240503   0.000103   0.000727
    11  O    0.213510   0.000136   0.000010   0.000103   8.179601   0.000908
    12  O    0.215517   0.000223   0.000263   0.000727   0.000908   8.176115
    13  O   -0.000015  -0.000505   0.178583   0.000000   0.000000   0.000000
    14  O   -0.000398   0.011266   0.227963  -0.000000   0.000000  -0.000000
    15  O   -0.000124   0.000165   0.210863   0.000000  -0.000000   0.000000
    16  O   -0.000079   0.216316  -0.000073  -0.000000  -0.000000   0.000000
    17  O    0.017804   0.222127  -0.000160  -0.022407   0.000001  -0.000000
    18  O   -0.000101   0.168774   0.001978   0.000000  -0.000000   0.000000
    19  O    0.000000  -0.000025  -0.000235  -0.000000  -0.000000  -0.000000
    20  O   -0.000149   0.000186   0.000007  -0.000000  -0.000000   0.000000
    21  O   -0.000151  -0.000143   0.015481   0.000000  -0.000000  -0.000000
    22  H   -0.014313  -0.000023   0.000020  -0.000100   0.000002   0.298817
    23  H   -0.016057   0.000082  -0.000012  -0.000223   0.298947   0.000020
    24  H   -0.000016   0.000023  -0.015878   0.000000   0.000000  -0.000000
    25  H   -0.000032   0.002773  -0.014379  -0.000000  -0.000000   0.000000
    26  H   -0.000001   0.000049  -0.016263   0.000000  -0.000000   0.000000
    27  H   -0.014992   0.000187   0.000036   0.297719  -0.000207  -0.000677
    28  H   -0.000612  -0.012448  -0.000117   0.055081  -0.000149   0.000011
    29  H   -0.000129  -0.015565   0.000044  -0.000000  -0.000000   0.000000
    30  H    0.000036  -0.013353   0.000107   0.000000   0.000000  -0.000000
    31  H    0.000004   0.000012  -0.000053  -0.000000  -0.000000  -0.000000
    32  H   -0.000016   0.000007   0.000031   0.000000   0.000000   0.000000
    33  H    0.000047  -0.000063   0.001776   0.000000   0.000000   0.000000
              13         14         15         16         17         18
     1  Si  -0.003971  -0.005606   0.000461   0.000293  -0.006035  -0.001236
     2  O   -0.000012  -0.000246  -0.000000   0.000996   0.001302   0.000805
     3  O    0.000513   0.001372   0.000790  -0.000000   0.000001   0.000005
     4  O   -0.000000   0.000000   0.000000   0.000000  -0.000235   0.000000
     5  O    0.000010   0.000000  -0.000000   0.000000   0.000000   0.000000
     6  Zr   0.003164   0.000257  -0.000175  -0.000057  -0.000136  -0.000186
     7  Zr  -0.000015  -0.000398  -0.000124  -0.000079   0.017804  -0.000101
     8  Zr  -0.000505   0.011266   0.000165   0.216316   0.222127   0.168774
     9  Zr   0.178583   0.227963   0.210863  -0.000073  -0.000160   0.001978
    10  O    0.000000  -0.000000   0.000000  -0.000000  -0.022407   0.000000
    11  O    0.000000   0.000000  -0.000000  -0.000000   0.000001  -0.000000
    12  O    0.000000  -0.000000   0.000000   0.000000  -0.000000   0.000000
    13  O    8.234098   0.000870   0.000396  -0.000000  -0.000000   0.000000
    14  O    0.000870   8.222900   0.001241   0.000000   0.000001  -0.020809
    15  O    0.000396   0.001241   8.192218   0.000000  -0.000000   0.000000
    16  O   -0.000000   0.000000   0.000000   8.182937   0.000993   0.000512
    17  O   -0.000000   0.000001  -0.000000   0.000993   8.227496   0.000505
    18  O    0.000000  -0.020809   0.000000   0.000512   0.000505   8.247850
    19  O    0.000000   0.000000  -0.000000   0.000000   0.000000   0.000000
    20  O    0.000000   0.000000   0.000000   0.000000  -0.000000  -0.000000
    21  O   -0.019313  -0.000000   0.000000  -0.000000   0.000000  -0.000000
    22  H    0.000000   0.000000   0.000000   0.000000  -0.000000  -0.000000
    23  H   -0.000000   0.000000   0.000000   0.000000  -0.000000  -0.000000
    24  H   -0.000337   0.000015   0.295183  -0.000000  -0.000000   0.000000
    25  H   -0.000219   0.273463   0.000031   0.000004  -0.000042   0.055354
    26  H    0.297017  -0.000851  -0.000130   0.000000  -0.000000  -0.000000
    27  H    0.000000   0.000000  -0.000000  -0.000000   0.000553   0.000000
    28  H   -0.000000   0.000000   0.000000   0.000007   0.273686  -0.000134
    29  H   -0.000000  -0.000000   0.000000   0.296497  -0.000558  -0.000019
    30  H    0.000000   0.000556  -0.000000  -0.000437  -0.000236   0.295971
    31  H    0.000000   0.000000   0.000000   0.000000  -0.000000   0.000000
    32  H   -0.000000   0.000000  -0.000000   0.000000   0.000000  -0.000000
    33  H    0.050747   0.000007  -0.000043   0.000000  -0.000000   0.000000
              19         20         21         22         23         24
     1  Si  -0.000879  -0.001242  -0.007819  -0.000106  -0.000150  -0.000049
     2  O   -0.000000   0.000000   0.000001  -0.000000   0.000000  -0.000000
     3  O    0.000000   0.000000  -0.000257  -0.000000  -0.000000  -0.000189
     4  O    0.000000   0.000000   0.000000  -0.000310  -0.000323   0.000000
     5  O    0.000548   0.000546   0.000925   0.000000   0.000000  -0.000000
     6  Zr   0.213625   0.217980   0.225845  -0.000020  -0.000010  -0.000058
     7  Zr   0.000000  -0.000149  -0.000151  -0.014313  -0.016057  -0.000016
     8  Zr  -0.000025   0.000186  -0.000143  -0.000023   0.000082   0.000023
     9  Zr  -0.000235   0.000007   0.015481   0.000020  -0.000012  -0.015878
    10  O   -0.000000  -0.000000   0.000000  -0.000100  -0.000223   0.000000
    11  O   -0.000000  -0.000000  -0.000000   0.000002   0.298947   0.000000
    12  O   -0.000000   0.000000  -0.000000   0.298817   0.000020  -0.000000
    13  O    0.000000   0.000000  -0.019313   0.000000  -0.000000  -0.000337
    14  O    0.000000   0.000000  -0.000000   0.000000   0.000000   0.000015
    15  O   -0.000000   0.000000   0.000000   0.000000   0.000000   0.295183
    16  O    0.000000   0.000000  -0.000000   0.000000   0.000000  -0.000000
    17  O    0.000000  -0.000000   0.000000  -0.000000  -0.000000  -0.000000
    18  O    0.000000  -0.000000  -0.000000  -0.000000  -0.000000   0.000000
    19  O    8.193022   0.000563   0.000989  -0.000000   0.000000   0.000000
    20  O    0.000563   8.184725   0.001020   0.000000   0.000000   0.000000
    21  O    0.000989   0.001020   8.223399   0.000000   0.000000   0.000001
    22  H   -0.000000   0.000000   0.000000   0.378066  -0.000001   0.000000
    23  H    0.000000   0.000000   0.000000  -0.000001   0.383962   0.000000
    24  H    0.000000   0.000000   0.000001   0.000000   0.000000   0.390763
    25  H    0.000000  -0.000000   0.000000  -0.000000  -0.000000  -0.000001
    26  H   -0.000000   0.000000   0.000556   0.000000  -0.000000   0.000001
    27  H    0.000000  -0.000000  -0.000000  -0.000000   0.000001  -0.000000
    28  H    0.000000  -0.000000   0.000000   0.000000  -0.000013  -0.000000
    29  H    0.000000   0.000000  -0.000000  -0.000000   0.000000   0.000000
    30  H   -0.000000  -0.000000  -0.000000   0.000000   0.000000   0.000000
    31  H   -0.000055   0.296841  -0.000534  -0.000000  -0.000000   0.000000
    32  H    0.293634  -0.000585   0.000005   0.000000  -0.000000  -0.000000
    33  H    0.000021  -0.000142   0.276358  -0.000000  -0.000000  -0.000009
              25         26         27         28         29         30
     1  Si  -0.000098  -0.000006   0.000038  -0.000007  -0.000033   0.000069
     2  O   -0.000680   0.000001  -0.000000  -0.000283  -0.000031   0.000048
     3  O   -0.000391   0.000015   0.000000   0.000002  -0.000000  -0.000000
     4  O    0.000002   0.000000   0.000025  -0.000711   0.000000   0.000000
     5  O    0.000000  -0.000001  -0.000000   0.000000  -0.000000   0.000000
     6  Zr  -0.000046   0.000501   0.000006   0.000030  -0.000015   0.000030
     7  Zr  -0.000032  -0.000001  -0.014992  -0.000612  -0.000129   0.000036
     8  Zr   0.002773   0.000049   0.000187  -0.012448  -0.015565  -0.013353
     9  Zr  -0.014379  -0.016263   0.000036  -0.000117   0.000044   0.000107
    10  O   -0.000000   0.000000   0.297719   0.055081  -0.000000   0.000000
    11  O   -0.000000  -0.000000  -0.000207  -0.000149  -0.000000   0.000000
    12  O    0.000000   0.000000  -0.000677   0.000011   0.000000  -0.000000
    13  O   -0.000219   0.297017   0.000000  -0.000000  -0.000000   0.000000
    14  O    0.273463  -0.000851   0.000000   0.000000  -0.000000   0.000556
    15  O    0.000031  -0.000130  -0.000000   0.000000   0.000000  -0.000000
    16  O    0.000004   0.000000  -0.000000   0.000007   0.296497  -0.000437
    17  O   -0.000042  -0.000000   0.000553   0.273686  -0.000558  -0.000236
    18  O    0.055354  -0.000000   0.000000  -0.000134  -0.000019   0.295971
    19  O    0.000000  -0.000000   0.000000   0.000000   0.000000  -0.000000
    20  O   -0.000000   0.000000  -0.000000  -0.000000   0.000000  -0.000000
    21  O    0.000000   0.000556  -0.000000   0.000000  -0.000000  -0.000000
    22  H   -0.000000   0.000000  -0.000000   0.000000  -0.000000   0.000000
    23  H   -0.000000  -0.000000   0.000001  -0.000013   0.000000   0.000000
    24  H   -0.000001   0.000001  -0.000000  -0.000000   0.000000   0.000000
    25  H    0.310028  -0.000027   0.000000  -0.000002  -0.000000  -0.001955
    26  H   -0.000027   0.385702  -0.000000   0.000000  -0.000000  -0.000000
    27  H    0.000000  -0.000000   0.380966  -0.001539   0.000000  -0.000000
    28  H   -0.000002   0.000000  -0.001539   0.310365  -0.000012  -0.000003
    29  H   -0.000000  -0.000000   0.000000  -0.000012   0.386071  -0.000001
    30  H   -0.001955  -0.000000  -0.000000  -0.000003  -0.000001   0.384621
    31  H   -0.000000  -0.000000   0.000000   0.000000  -0.000000  -0.000000
    32  H   -0.000000   0.000000   0.000000  -0.000000   0.000000   0.000000
    33  H    0.000000  -0.001770  -0.000000   0.000000  -0.000000   0.000000
              31         32         33
     1  Si  -0.000037   0.000027  -0.000181
     2  O   -0.000000  -0.000000   0.000002
     3  O    0.000000   0.000000  -0.000786
     4  O    0.000000  -0.000000   0.000000
     5  O   -0.000039  -0.000082  -0.000316
     6  Zr  -0.017204  -0.016211  -0.014012
     7  Zr   0.000004  -0.000016   0.000047
     8  Zr   0.000012   0.000007  -0.000063
     9  Zr  -0.000053   0.000031   0.001776
    10  O   -0.000000   0.000000   0.000000
    11  O   -0.000000   0.000000   0.000000
    12  O   -0.000000   0.000000   0.000000
    13  O    0.000000  -0.000000   0.050747
    14  O    0.000000   0.000000   0.000007
    15  O    0.000000  -0.000000  -0.000043
    16  O    0.000000   0.000000   0.000000
    17  O   -0.000000   0.000000  -0.000000
    18  O    0.000000  -0.000000   0.000000
    19  O   -0.000055   0.293634   0.000021
    20  O    0.296841  -0.000585  -0.000142
    21  O   -0.000534   0.000005   0.276358
    22  H   -0.000000   0.000000  -0.000000
    23  H   -0.000000  -0.000000  -0.000000
    24  H    0.000000  -0.000000  -0.000009
    25  H   -0.000000  -0.000000   0.000000
    26  H   -0.000000   0.000000  -0.001770
    27  H    0.000000   0.000000  -0.000000
    28  H    0.000000  -0.000000   0.000000
    29  H   -0.000000   0.000000  -0.000000
    30  H   -0.000000   0.000000   0.000000
    31  H    0.392831   0.000000  -0.000027
    32  H    0.000000   0.396531  -0.000002
    33  H   -0.000027  -0.000002   0.317228
 Mulliken charges:
               1
     1  Si   1.419951
     2  O   -0.771340
     3  O   -0.767476
     4  O   -0.756002
     5  O   -0.750445
     6  Zr   1.497795
     7  Zr   1.552029
     8  Zr   1.522846
     9  Zr   1.492299
    10  O   -0.744520
    11  O   -0.692877
    12  O   -0.692043
    13  O   -0.741026
    14  O   -0.712001
    15  O   -0.700874
    16  O   -0.697909
    17  O   -0.714658
    18  O   -0.749268
    19  O   -0.701207
    20  O   -0.699750
    21  O   -0.716363
    22  H    0.337969
    23  H    0.333777
    24  H    0.330552
    25  H    0.376219
    26  H    0.335207
    27  H    0.337883
    28  H    0.376847
    29  H    0.333750
    30  H    0.334547
    31  H    0.328262
    32  H    0.326662
    33  H    0.371164
 Sum of Mulliken charges =  -0.00000
 Mulliken charges with hydrogens summed into heavy atoms:
               1
     1  Si   1.419951
     2  O   -0.771340
     3  O   -0.767476
     4  O   -0.756002
     5  O   -0.750445
     6  Zr   1.497795
     7  Zr   1.552029
     8  Zr   1.522846
     9  Zr   1.492299
    10  O   -0.406636
    11  O   -0.359099
    12  O   -0.354074
    13  O   -0.405819
    14  O   -0.335782
    15  O   -0.370322
    16  O   -0.364159
    17  O   -0.337811
    18  O   -0.414721
    19  O   -0.374545
    20  O   -0.371488
    21  O   -0.345199
 Electronic spatial extent (au):  <R**2>=          10688.2277
 Charge=             -0.0000 electrons
 Dipole moment (field-independent basis, Debye):
    X=             -2.2357    Y=             -1.2382    Z=             -1.5472  Tot=              2.9875
 Quadrupole moment (field-independent basis, Debye-Ang):
   XX=           -179.5885   YY=           -184.7604   ZZ=           -173.6885
   XY=             -0.2379   XZ=             -0.6435   YZ=              6.0027
 Traceless Quadrupole moment (field-independent basis, Debye-Ang):
   XX=             -0.2427   YY=             -5.4146   ZZ=              5.6573
   XY=             -0.2379   XZ=             -0.6435   YZ=              6.0027
 Octapole moment (field-independent basis, Debye-Ang**2):
  XXX=            -50.0213  YYY=            -17.5455  ZZZ=             -0.1873  XYY=             27.6086
  XXY=            -54.2381  XXZ=            -30.3588  XZZ=            -11.0975  YZZ=             28.4183
  YYZ=            -62.7857  XYZ=             -1.4746
 Hexadecapole moment (field-independent basis, Debye-Ang**3):
 XXXX=          -7486.1132 YYYY=          -4708.5065 ZZZZ=          -2653.4293 XXXY=            -21.9860
 XXXZ=           -228.1318 YYYX=            330.1235 YYYZ=             75.7578 ZZZX=            156.5873
 ZZZY=            160.4609 XXYY=          -2006.9122 XXZZ=          -1466.5160 YYZZ=          -1449.4764
 XXYZ=           -120.6072 YYXZ=             79.3805 ZZXY=            -15.7661
 N-N= 2.473182961983D+03 E-N=-8.871634442732D+03  KE= 1.548542077906D+03
 1\1\GINC-GRA1297\FOpt\RB3LYP\Gen\H12O16Si1Zr4\SARASHS\20-Jun-2020\0\\#
 n B3LYP/GEN PSEUDO=READ Opt\\Title\\0,1\Si,-7.6189892918,-0.0991541271
 ,-0.0303337436\O,-6.1622075996,0.459557861,-0.5816007239\O,-8.77287569
 51,1.008875548,-0.4348235256\O,-7.5362990581,-0.2031119545,1.620196566
 2\O,-7.9697429688,-1.5511334398,-0.6797823526\Zr,-8.9006786197,-2.4868
 77867,-2.1827370809\Zr,-7.2645814803,-0.0375197393,3.5437851435\Zr,-4.
 5807772406,1.5953905416,-0.262334757\Zr,-9.1321510327,2.485322209,-1.7
 02651851\O,-6.0591984264,1.5580783955,3.7710610208\O,-6.3762005955,-1.
 6183644157,4.2844993029\O,-8.9158579223,0.2488707006,4.5496913069\O,-9
 .2424422921,1.6012468379,-3.5078213957\O,-7.6779842302,3.7588464294,-1
 .6818259567\O,-10.8091850312,3.4244369736,-1.2762890184\O,-2.930935048
 8,0.850642605,-1.0270851266\O,-4.3859260815,1.7886589005,1.6459330208\
 O,-5.0238113857,3.3676857951,-1.1186703946\O,-10.3518120016,-3.6359020
 247,-1.496042959\O,-7.5763932215,-3.5840354448,-3.1368575241\O,-9.6607
 534258,-1.1235981466,-3.3288712819\H,-9.8425845449,0.4683347282,4.4170
 600769\H,-5.6662820287,-2.2301356901,4.0704382208\H,-11.7480471643,3.2
 173175025,-1.3028168324\H,-6.7096774372,3.7142291821,-1.5009537666\H,-
 8.8768615932,1.8827024371,-4.3537445815\H,-6.0257682203,2.2215621322,4
 .4688839633\H,-4.8977161895,1.7918565117,2.4876969865\H,-2.1015510873,
 0.4710396581,-0.7232451301\H,-4.4547790002,4.1035707936,-1.3693562079\
 H,-7.1387411322,-3.6161728865,-3.9917196713\H,-10.4340425427,-4.573974
 1172,-1.3006401561\H,-9.5735364103,-0.1626158898,-3.5084015711\\Versio
 n=ES64L-G16RevB.01\State=1-A\HF=-1687.8177462\RMSD=6.258e-09\RMSF=5.07
 9e-06\Dipole=1.0876202,0.36198,0.2599125\Quadrupole=3.9191392,-5.36302
 12,1.443882,-0.2726232,-3.1115141,2.0694151\PG=C01 [X(H12O16Si1Zr4)]\\
 @


 HE THAT IS UNAWARE OF HIS IGNORANCE WILL BE MISLED BY HIS KNOWLEDGE.

                                        -- WHATLEY
 Job cpu time:       0 days 20 hours 17 minutes 30.1 seconds.
 Elapsed time:       0 days  1 hours 17 minutes 50.6 seconds.
 File lengths (MBytes):  RWF=     96 Int=      0 D2E=      0 Chk=     13 Scr=      1
 Normal termination of Gaussian 16 at Sat Jun 20 06:08:12 2020.
