 Entering Gaussian System, Link 0=g16
 Initial command:
 /opt/software/gaussian/g16.b01/l1.exe "/localscratch/sarashs.33330310.0/Gau-27650.inp" -scrdir="/localscratch/sarashs.33330310.0/"
 Entering Link 1 = /opt/software/gaussian/g16.b01/l1.exe PID=     27651.
  
 Copyright (c) 1988-2017, Gaussian, Inc.  All Rights Reserved.
  
 This is part of the Gaussian(R) 16 program.  It is based on
 the Gaussian(R) 09 system (copyright 2009, Gaussian, Inc.),
 the Gaussian(R) 03 system (copyright 2003, Gaussian, Inc.),
 the Gaussian(R) 98 system (copyright 1998, Gaussian, Inc.),
 the Gaussian(R) 94 system (copyright 1995, Gaussian, Inc.),
 the Gaussian 92(TM) system (copyright 1992, Gaussian, Inc.),
 the Gaussian 90(TM) system (copyright 1990, Gaussian, Inc.),
 the Gaussian 88(TM) system (copyright 1988, Gaussian, Inc.),
 the Gaussian 86(TM) system (copyright 1986, Carnegie Mellon
 University), and the Gaussian 82(TM) system (copyright 1983,
 Carnegie Mellon University). Gaussian is a federally registered
 trademark of Gaussian, Inc.
  
 This software contains proprietary and confidential information,
 including trade secrets, belonging to Gaussian, Inc.
  
 This software is provided under written license and may be
 used, copied, transmitted, or stored only in accord with that
 written license.
  
 The following legend is applicable only to US Government
 contracts under FAR:
  
                    RESTRICTED RIGHTS LEGEND
  
 Use, reproduction and disclosure by the US Government is
 subject to restrictions as set forth in subparagraphs (a)
 and (c) of the Commercial Computer Software - Restricted
 Rights clause in FAR 52.227-19.
  
 Gaussian, Inc.
 340 Quinnipiac St., Bldg. 40, Wallingford CT 06492
  
  
 ---------------------------------------------------------------
 Warning -- This program may not be used in any manner that
 competes with the business of Gaussian, Inc. or will provide
 assistance to any competitor of Gaussian, Inc.  The licensee
 of this program is prohibited from giving any competitor of
 Gaussian, Inc. access to this program.  By using this program,
 the user acknowledges that Gaussian, Inc. is engaged in the
 business of creating and licensing software in the field of
 computational chemistry and represents and warrants to the
 licensee that it is not a competitor of Gaussian, Inc. and that
 it will not use this program in any manner prohibited above.
 ---------------------------------------------------------------
  

 Cite this work as:
 Gaussian 16, Revision B.01,
 M. J. Frisch, G. W. Trucks, H. B. Schlegel, G. E. Scuseria, 
 M. A. Robb, J. R. Cheeseman, G. Scalmani, V. Barone, 
 G. A. Petersson, H. Nakatsuji, X. Li, M. Caricato, A. V. Marenich, 
 J. Bloino, B. G. Janesko, R. Gomperts, B. Mennucci, H. P. Hratchian, 
 J. V. Ortiz, A. F. Izmaylov, J. L. Sonnenberg, D. Williams-Young, 
 F. Ding, F. Lipparini, F. Egidi, J. Goings, B. Peng, A. Petrone, 
 T. Henderson, D. Ranasinghe, V. G. Zakrzewski, J. Gao, N. Rega, 
 G. Zheng, W. Liang, M. Hada, M. Ehara, K. Toyota, R. Fukuda, 
 J. Hasegawa, M. Ishida, T. Nakajima, Y. Honda, O. Kitao, H. Nakai, 
 T. Vreven, K. Throssell, J. A. Montgomery, Jr., J. E. Peralta, 
 F. Ogliaro, M. J. Bearpark, J. J. Heyd, E. N. Brothers, K. N. Kudin, 
 V. N. Staroverov, T. A. Keith, R. Kobayashi, J. Normand, 
 K. Raghavachari, A. P. Rendell, J. C. Burant, S. S. Iyengar, 
 J. Tomasi, M. Cossi, J. M. Millam, M. Klene, C. Adamo, R. Cammi, 
 J. W. Ochterski, R. L. Martin, K. Morokuma, O. Farkas, 
 J. B. Foresman, and D. J. Fox, Gaussian, Inc., Wallingford CT, 2016.
 
 ******************************************
 Gaussian 16:  ES64L-G16RevB.01 20-Dec-2017
                22-Jun-2020 
 ******************************************
 %NProcShared=16
 Will use up to   16 processors via shared memory.
 ----------------------------
 #n B3LYP/GEN PSEUDO=READ Opt
 ----------------------------
 1/18=20,19=15,26=3,38=1/1,3;
 2/9=110,12=2,17=6,18=5,40=1/2;
 3/5=7,11=2,16=1,17=8,25=1,30=1,71=1,74=-5/1,2,3;
 4//1;
 5/5=2,38=5/2;
 6/7=2,8=2,9=2,10=2,28=1/1;
 7//1,2,3,16;
 1/18=20,19=15,26=3/3(2);
 2/9=110/2;
 99//99;
 2/9=110/2;
 3/5=7,6=1,11=2,16=1,17=8,25=1,30=1,71=1,74=-5,82=7/1,2,3;
 4/5=5,16=3,69=1/1;
 5/5=2,38=5/2;
 7//1,2,3,16;
 1/18=20,19=15,26=3/3(-5);
 2/9=110/2;
 6/7=2,8=2,9=2,10=2,19=2,28=1/1;
 99/9=1/99;
 -----
 Title
 -----
 Symbolic Z-matrix:
 Charge =  0 Multiplicity = 1
 Zr                    0.11784   0.49717  -0.06378 
 O                    -0.35674  -0.64219  -1.16601 
 O                     0.73909  -0.29191   1.24549 
 O                    -1.22541   1.34089   0.41132 
 O                     1.22881   1.50099  -0.70499 
 Zr                    3.18698   1.83479  -0.94011 
 Zr                   -2.96256   2.03528   0.96049 
 Zr                   -1.75822  -1.8868   -1.78225 
 Zr                    1.53676  -2.02161   1.78236 
 O                    -4.22113   0.47001   0.83212 
 O                    -3.5838    3.45304  -0.23991 
 O                    -2.98757   2.73949   2.78368 
 O                     3.29415  -2.10619   0.8042 
 O                     0.40385  -3.48619   1.22701 
 O                     1.81004  -2.12877   3.72916 
 O                    -1.79896  -2.09413  -3.73592 
 O                    -3.4505   -1.20099  -1.16364 
 O                    -1.33041  -3.64509  -0.89004 
 O                     3.71397   3.52915  -0.07465 
 O                     3.56734   1.92417  -2.86758 
 O                     4.12805   0.37055  -0.09143 
 H                    -2.45666   2.75607   3.5852 
 H                    -3.61279   3.66128  -1.17793 
 H                     2.38069  -1.70263   4.37555 
 H                    -0.23638  -3.63763   0.4925 
 H                     3.70542  -2.84453   0.34142 
 H                    -4.98527   0.23686   1.37064 
 H                    -3.86114  -0.66074  -0.44949 
 H                    -2.37214  -1.86857  -4.47407 
 H                    -1.63149  -4.53879  -1.08707 
 H                     4.0354    1.42287  -3.54061 
 H                     3.86098   4.42757  -0.38472 
 H                     3.95927  -0.5409    0.23121 
 

 GradGradGradGradGradGradGradGradGradGradGradGradGradGradGradGradGradGrad
 Berny optimization.
 Initialization pass.
                           ----------------------------
                           !    Initial Parameters    !
                           ! (Angstroms and Degrees)  !
 --------------------------                            --------------------------
 ! Name  Definition              Value          Derivative Info.                !
 --------------------------------------------------------------------------------
 ! R1    R(1,2)                  1.6548         estimate D2E/DX2                !
 ! R2    R(1,3)                  1.6501         estimate D2E/DX2                !
 ! R3    R(1,4)                  1.6559         estimate D2E/DX2                !
 ! R4    R(1,5)                  1.6288         estimate D2E/DX2                !
 ! R5    R(1,6)                  3.4608         estimate D2E/DX2                !
 ! R6    R(1,9)                  3.4301         estimate D2E/DX2                !
 ! R7    R(2,8)                  1.9731         estimate D2E/DX2                !
 ! R8    R(3,9)                  1.979          estimate D2E/DX2                !
 ! R9    R(4,7)                  1.9497         estimate D2E/DX2                !
 ! R10   R(5,6)                  2.0003         estimate D2E/DX2                !
 ! R11   R(6,19)                 1.9742         estimate D2E/DX2                !
 ! R12   R(6,20)                 1.9667         estimate D2E/DX2                !
 ! R13   R(6,21)                 1.9365         estimate D2E/DX2                !
 ! R14   R(7,10)                 2.0126         estimate D2E/DX2                !
 ! R15   R(7,11)                 1.9588         estimate D2E/DX2                !
 ! R16   R(7,12)                 1.9546         estimate D2E/DX2                !
 ! R17   R(8,16)                 1.9651         estimate D2E/DX2                !
 ! R18   R(8,17)                 1.9279         estimate D2E/DX2                !
 ! R19   R(8,18)                 2.0176         estimate D2E/DX2                !
 ! R20   R(9,13)                 2.0131         estimate D2E/DX2                !
 ! R21   R(9,14)                 1.9331         estimate D2E/DX2                !
 ! R22   R(9,15)                 1.9688         estimate D2E/DX2                !
 ! R23   R(10,27)                0.9635         estimate D2E/DX2                !
 ! R24   R(11,23)                0.9613         estimate D2E/DX2                !
 ! R25   R(12,22)                0.9615         estimate D2E/DX2                !
 ! R26   R(13,26)                0.9636         estimate D2E/DX2                !
 ! R27   R(14,25)                0.9861         estimate D2E/DX2                !
 ! R28   R(15,24)                0.9618         estimate D2E/DX2                !
 ! R29   R(16,29)                0.9614         estimate D2E/DX2                !
 ! R30   R(17,28)                0.9851         estimate D2E/DX2                !
 ! R31   R(18,30)                0.9634         estimate D2E/DX2                !
 ! R32   R(19,32)                0.9617         estimate D2E/DX2                !
 ! R33   R(20,31)                0.9609         estimate D2E/DX2                !
 ! R34   R(21,33)                0.9815         estimate D2E/DX2                !
 ! A1    A(2,1,3)              107.8925         estimate D2E/DX2                !
 ! A2    A(2,1,4)              108.0166         estimate D2E/DX2                !
 ! A3    A(2,1,5)              110.9607         estimate D2E/DX2                !
 ! A4    A(2,1,6)              110.5974         estimate D2E/DX2                !
 ! A5    A(2,1,9)               88.3692         estimate D2E/DX2                !
 ! A6    A(3,1,4)              108.7488         estimate D2E/DX2                !
 ! A7    A(3,1,5)              110.5039         estimate D2E/DX2                !
 ! A8    A(3,1,6)               92.9726         estimate D2E/DX2                !
 ! A9    A(4,1,5)              110.6238         estimate D2E/DX2                !
 ! A10   A(4,1,6)              126.5215         estimate D2E/DX2                !
 ! A11   A(4,1,9)              123.7312         estimate D2E/DX2                !
 ! A12   A(5,1,9)              112.4745         estimate D2E/DX2                !
 ! A13   A(6,1,9)               93.0525         estimate D2E/DX2                !
 ! A14   A(1,2,8)              147.7875         estimate D2E/DX2                !
 ! A15   A(1,6,19)             117.2221         estimate D2E/DX2                !
 ! A16   A(1,6,20)             115.9289         estimate D2E/DX2                !
 ! A17   A(1,6,21)              91.59           estimate D2E/DX2                !
 ! A18   A(5,6,19)             110.6712         estimate D2E/DX2                !
 ! A19   A(5,6,20)             108.1868         estimate D2E/DX2                !
 ! A20   A(5,6,21)             107.3403         estimate D2E/DX2                !
 ! A21   A(19,6,20)            109.8165         estimate D2E/DX2                !
 ! A22   A(19,6,21)            109.093          estimate D2E/DX2                !
 ! A23   A(20,6,21)            111.7097         estimate D2E/DX2                !
 ! A24   A(4,7,10)             105.2013         estimate D2E/DX2                !
 ! A25   A(4,7,11)             111.5761         estimate D2E/DX2                !
 ! A26   A(4,7,12)             113.7306         estimate D2E/DX2                !
 ! A27   A(10,7,11)            108.9957         estimate D2E/DX2                !
 ! A28   A(10,7,12)            109.3717         estimate D2E/DX2                !
 ! A29   A(11,7,12)            107.8659         estimate D2E/DX2                !
 ! A30   A(2,8,16)             113.0664         estimate D2E/DX2                !
 ! A31   A(2,8,17)             107.3906         estimate D2E/DX2                !
 ! A32   A(2,8,18)             105.1296         estimate D2E/DX2                !
 ! A33   A(16,8,17)            109.7761         estimate D2E/DX2                !
 ! A34   A(16,8,18)            110.6159         estimate D2E/DX2                !
 ! A35   A(17,8,18)            110.747          estimate D2E/DX2                !
 ! A36   A(1,9,13)              97.496          estimate D2E/DX2                !
 ! A37   A(1,9,14)              99.1654         estimate D2E/DX2                !
 ! A38   A(1,9,15)             129.0193         estimate D2E/DX2                !
 ! A39   A(3,9,13)             104.8793         estimate D2E/DX2                !
 ! A40   A(3,9,14)             110.3673         estimate D2E/DX2                !
 ! A41   A(3,9,15)             111.8251         estimate D2E/DX2                !
 ! A42   A(13,9,14)            109.8891         estimate D2E/DX2                !
 ! A43   A(13,9,15)            110.917          estimate D2E/DX2                !
 ! A44   A(14,9,15)            108.9161         estimate D2E/DX2                !
 ! A45   A(7,10,27)            130.4304         estimate D2E/DX2                !
 ! A46   A(7,11,23)            139.8481         estimate D2E/DX2                !
 ! A47   A(7,12,22)            140.9565         estimate D2E/DX2                !
 ! A48   A(9,13,26)            129.6564         estimate D2E/DX2                !
 ! A49   A(9,14,25)            135.3051         estimate D2E/DX2                !
 ! A50   A(9,15,24)            136.2854         estimate D2E/DX2                !
 ! A51   A(8,16,29)            138.6724         estimate D2E/DX2                !
 ! A52   A(8,17,28)            142.5208         estimate D2E/DX2                !
 ! A53   A(8,18,30)            130.6711         estimate D2E/DX2                !
 ! A54   A(6,19,32)            134.5242         estimate D2E/DX2                !
 ! A55   A(6,20,31)            139.1954         estimate D2E/DX2                !
 ! A56   A(6,21,33)            139.7012         estimate D2E/DX2                !
 ! A57   L(1,4,7,17,-1)        171.1037         estimate D2E/DX2                !
 ! A58   L(1,4,7,17,-2)        175.5815         estimate D2E/DX2                !
 ! D1    D(3,1,2,8)             84.7577         estimate D2E/DX2                !
 ! D2    D(4,1,2,8)            -32.6406         estimate D2E/DX2                !
 ! D3    D(5,1,2,8)           -154.0555         estimate D2E/DX2                !
 ! D4    D(6,1,2,8)           -174.8989         estimate D2E/DX2                !
 ! D5    D(9,1,2,8)             92.4525         estimate D2E/DX2                !
 ! D6    D(2,1,7,10)            32.8699         estimate D2E/DX2                !
 ! D7    D(2,1,7,11)           -83.6541         estimate D2E/DX2                !
 ! D8    D(2,1,7,12)           150.5208         estimate D2E/DX2                !
 ! D9    D(3,1,7,10)           -81.3062         estimate D2E/DX2                !
 ! D10   D(3,1,7,11)           162.1698         estimate D2E/DX2                !
 ! D11   D(3,1,7,12)            36.3447         estimate D2E/DX2                !
 ! D12   D(5,1,7,10)           154.6704         estimate D2E/DX2                !
 ! D13   D(5,1,7,11)            38.1464         estimate D2E/DX2                !
 ! D14   D(5,1,7,12)           -87.6787         estimate D2E/DX2                !
 ! D15   D(6,1,7,10)           167.8319         estimate D2E/DX2                !
 ! D16   D(6,1,7,11)            51.3079         estimate D2E/DX2                !
 ! D17   D(6,1,7,12)           -74.5172         estimate D2E/DX2                !
 ! D18   D(9,1,7,10)           -63.6653         estimate D2E/DX2                !
 ! D19   D(9,1,7,11)           179.8107         estimate D2E/DX2                !
 ! D20   D(9,1,7,12)            53.9856         estimate D2E/DX2                !
 ! D21   D(2,1,6,19)           163.6048         estimate D2E/DX2                !
 ! D22   D(2,1,6,20)            31.2271         estimate D2E/DX2                !
 ! D23   D(2,1,6,21)           -83.9211         estimate D2E/DX2                !
 ! D24   D(3,1,6,19)           -86.0198         estimate D2E/DX2                !
 ! D25   D(3,1,6,20)           141.6026         estimate D2E/DX2                !
 ! D26   D(3,1,6,21)            26.4543         estimate D2E/DX2                !
 ! D27   D(4,1,6,19)            30.0172         estimate D2E/DX2                !
 ! D28   D(4,1,6,20)          -102.3605         estimate D2E/DX2                !
 ! D29   D(4,1,6,21)           142.4913         estimate D2E/DX2                !
 ! D30   D(9,1,6,19)          -106.9913         estimate D2E/DX2                !
 ! D31   D(9,1,6,20)           120.631          estimate D2E/DX2                !
 ! D32   D(9,1,6,21)             5.4827         estimate D2E/DX2                !
 ! D33   D(2,1,9,13)            84.2957         estimate D2E/DX2                !
 ! D34   D(2,1,9,14)           -27.346          estimate D2E/DX2                !
 ! D35   D(2,1,9,15)          -150.9467         estimate D2E/DX2                !
 ! D36   D(4,1,9,13)          -165.0308         estimate D2E/DX2                !
 ! D37   D(4,1,9,14)            83.3276         estimate D2E/DX2                !
 ! D38   D(4,1,9,15)           -40.2732         estimate D2E/DX2                !
 ! D39   D(5,1,9,13)           -27.7601         estimate D2E/DX2                !
 ! D40   D(5,1,9,14)          -139.4018         estimate D2E/DX2                !
 ! D41   D(5,1,9,15)            96.9975         estimate D2E/DX2                !
 ! D42   D(6,1,9,13)           -26.2481         estimate D2E/DX2                !
 ! D43   D(6,1,9,14)          -137.8898         estimate D2E/DX2                !
 ! D44   D(6,1,9,15)            98.5095         estimate D2E/DX2                !
 ! D45   D(1,2,8,16)           146.5754         estimate D2E/DX2                !
 ! D46   D(1,2,8,17)            25.3279         estimate D2E/DX2                !
 ! D47   D(1,2,8,18)           -92.6558         estimate D2E/DX2                !
 ! D48   D(1,6,19,32)         -113.9649         estimate D2E/DX2                !
 ! D49   D(5,6,19,32)          -98.2659         estimate D2E/DX2                !
 ! D50   D(20,6,19,32)          21.1106         estimate D2E/DX2                !
 ! D51   D(21,6,19,32)         143.8492         estimate D2E/DX2                !
 ! D52   D(1,6,20,31)          -97.501          estimate D2E/DX2                !
 ! D53   D(5,6,20,31)         -112.3281         estimate D2E/DX2                !
 ! D54   D(19,6,20,31)         126.7854         estimate D2E/DX2                !
 ! D55   D(21,6,20,31)           5.6069         estimate D2E/DX2                !
 ! D56   D(1,6,21,33)           17.7243         estimate D2E/DX2                !
 ! D57   D(5,6,21,33)           17.3576         estimate D2E/DX2                !
 ! D58   D(19,6,21,33)         137.3192         estimate D2E/DX2                !
 ! D59   D(20,6,21,33)        -101.0834         estimate D2E/DX2                !
 ! D60   D(4,7,10,27)          145.8413         estimate D2E/DX2                !
 ! D61   D(11,7,10,27)         -94.3865         estimate D2E/DX2                !
 ! D62   D(12,7,10,27)          23.3216         estimate D2E/DX2                !
 ! D63   D(4,7,11,23)           41.0945         estimate D2E/DX2                !
 ! D64   D(10,7,11,23)         -74.6486         estimate D2E/DX2                !
 ! D65   D(12,7,11,23)         166.6964         estimate D2E/DX2                !
 ! D66   D(4,7,12,22)          -12.2262         estimate D2E/DX2                !
 ! D67   D(10,7,12,22)         105.0437         estimate D2E/DX2                !
 ! D68   D(11,7,12,22)        -136.5419         estimate D2E/DX2                !
 ! D69   D(2,8,16,29)         -111.3375         estimate D2E/DX2                !
 ! D70   D(17,8,16,29)           8.552          estimate D2E/DX2                !
 ! D71   D(18,8,16,29)         131.0629         estimate D2E/DX2                !
 ! D72   D(2,8,17,28)          -27.84           estimate D2E/DX2                !
 ! D73   D(16,8,17,28)        -151.1322         estimate D2E/DX2                !
 ! D74   D(18,8,17,28)          86.4348         estimate D2E/DX2                !
 ! D75   D(2,8,18,30)         -163.1968         estimate D2E/DX2                !
 ! D76   D(16,8,18,30)         -40.8293         estimate D2E/DX2                !
 ! D77   D(17,8,18,30)          81.113          estimate D2E/DX2                !
 ! D78   D(1,9,13,26)         -121.3819         estimate D2E/DX2                !
 ! D79   D(3,9,13,26)         -137.3889         estimate D2E/DX2                !
 ! D80   D(14,9,13,26)         -18.7638         estimate D2E/DX2                !
 ! D81   D(15,9,13,26)         101.7232         estimate D2E/DX2                !
 ! D82   D(1,9,14,25)           15.2368         estimate D2E/DX2                !
 ! D83   D(3,9,14,25)           28.9524         estimate D2E/DX2                !
 ! D84   D(13,9,14,25)         -86.2358         estimate D2E/DX2                !
 ! D85   D(15,9,14,25)         152.0749         estimate D2E/DX2                !
 ! D86   D(1,9,15,24)          -71.174          estimate D2E/DX2                !
 ! D87   D(3,9,15,24)          -68.5596         estimate D2E/DX2                !
 ! D88   D(13,9,15,24)          48.1321         estimate D2E/DX2                !
 ! D89   D(14,9,15,24)         169.1945         estimate D2E/DX2                !
 --------------------------------------------------------------------------------
 Trust Radius=3.00D-01 FncErr=1.00D-07 GrdErr=1.00D-06 EigMax=2.50D+02 EigMin=1.00D-04
 Number of steps in this run=    191 maximum allowed number of steps=    198.
 GradGradGradGradGradGradGradGradGradGradGradGradGradGradGradGradGradGrad

                          Input orientation:                          
 ---------------------------------------------------------------------
 Center     Atomic      Atomic             Coordinates (Angstroms)
 Number     Number       Type             X           Y           Z
 ---------------------------------------------------------------------
      1         40           0        0.117840    0.497170   -0.063780
      2          8           0       -0.356740   -0.642190   -1.166010
      3          8           0        0.739090   -0.291910    1.245490
      4          8           0       -1.225410    1.340890    0.411320
      5          8           0        1.228810    1.500990   -0.704990
      6         40           0        3.186980    1.834790   -0.940110
      7         40           0       -2.962560    2.035280    0.960490
      8         40           0       -1.758220   -1.886800   -1.782250
      9         40           0        1.536760   -2.021610    1.782360
     10          8           0       -4.221130    0.470010    0.832120
     11          8           0       -3.583800    3.453040   -0.239910
     12          8           0       -2.987570    2.739490    2.783680
     13          8           0        3.294150   -2.106190    0.804200
     14          8           0        0.403850   -3.486190    1.227010
     15          8           0        1.810040   -2.128770    3.729160
     16          8           0       -1.798960   -2.094130   -3.735920
     17          8           0       -3.450500   -1.200990   -1.163640
     18          8           0       -1.330410   -3.645090   -0.890040
     19          8           0        3.713970    3.529150   -0.074650
     20          8           0        3.567340    1.924170   -2.867580
     21          8           0        4.128050    0.370550   -0.091430
     22          1           0       -2.456660    2.756070    3.585200
     23          1           0       -3.612790    3.661280   -1.177930
     24          1           0        2.380690   -1.702630    4.375550
     25          1           0       -0.236380   -3.637630    0.492500
     26          1           0        3.705420   -2.844530    0.341420
     27          1           0       -4.985270    0.236860    1.370640
     28          1           0       -3.861140   -0.660740   -0.449490
     29          1           0       -2.372140   -1.868570   -4.474070
     30          1           0       -1.631490   -4.538790   -1.087070
     31          1           0        4.035400    1.422870   -3.540610
     32          1           0        3.860980    4.427570   -0.384720
     33          1           0        3.959270   -0.540900    0.231210
 ---------------------------------------------------------------------
                    Distance matrix (angstroms):
                    1          2          3          4          5
     1  Zr   0.000000
     2  O    1.654774   0.000000
     3  O    1.650087   2.671867   0.000000
     4  O    1.655870   2.678650   2.687217   0.000000
     5  O    1.628821   2.705500   2.694195   2.700921   0.000000
     6  Zr   3.460752   4.329482   3.910482   4.641065   2.000283
     7  Zr   3.592183   4.298970   4.381695   1.949732   4.541682
     8  Zr   3.486553   1.973057   4.236442   3.938733   4.643270
     9  Zr   3.430134   3.765770   1.978982   4.562427   4.323246
    10  O    4.430580   4.490325   5.035393   3.147990   5.755647
    11  O    4.740288   5.295516   5.909183   3.232225   5.214213
    12  O    4.772798   5.827270   5.044146   3.269462   5.610932
    13  O    4.197597   4.399321   3.164598   5.697643   4.422107
    14  O    4.197034   3.793861   3.211877   5.159510   5.411575
    15  O    4.913807   5.555857   3.269496   5.679838   5.759746
    16  O    4.886059   3.285204   5.874022   5.415526   5.592747
    17  O    4.102010   3.143822   4.917621   3.727288   5.422822
    18  O    4.465249   3.168849   4.481867   5.154082   5.750303
    19  O    4.703740   5.929741   5.019281   5.424216   3.269064
    20  O    4.668691   4.987980   5.461442   5.836253   3.213191
    21  O    4.012304   4.721621   3.702872   5.463868   3.171741
    22  H    5.004571   6.207401   4.997724   3.686764   5.793414
    23  H    5.017023   5.396467   6.359209   3.689107   5.322745
    24  H    5.446766   6.271120   3.805556   6.162961   6.115709
    25  H    4.187062   3.426048   3.565442   5.076459   5.475964
    26  H    4.919540   4.860431   4.016507   6.468053   5.110001
    27  H    5.307264   5.350758   5.750092   4.034318   6.672410
    28  H    4.161948   3.576949   4.916412   3.419735   5.535878
    29  H    5.589936   4.063140   6.699177   5.956732   6.206991
    30  H    5.428459   4.100574   5.394115   6.081177   6.693747
    31  H    5.319074   5.403156   6.059116   6.580319   3.990462
    32  H    5.437108   6.640937   5.888741   6.002719   3.949147
    33  H    3.990137   4.537667   3.385309   5.518558   3.535703
                    6          7          8          9         10
     6  Zr   0.000000
     7  Zr   6.439668   0.000000
     8  Zr   6.246154   4.935156   0.000000
     9  Zr   5.000689   6.113731   4.856080   0.000000
    10  O    7.738444   2.012597   4.295976   6.345425   0.000000
    11  O    6.996605   1.958812   5.850252   7.764116   3.233250
    12  O    7.267060   1.954625   6.615253   6.643815   3.237406
    13  O    4.311082   7.504840   5.680167   2.013050   7.944622
    14  O    6.383968   6.472278   4.035869   1.933105   6.099008
    15  O    6.277568   6.912493   6.570135   1.968806   7.177849
    16  O    6.936322   6.360995   1.965063   6.448543   5.771370
    17  O    7.302196   3.901725   1.927907   5.850222   2.714621
    18  O    7.102000   6.193140   2.017584   4.242414   5.315651
    19  O    1.974233   6.919481   7.886271   6.244971   8.552566
    20  O    1.966673   7.570077   6.637998   6.427626   8.744291
    21  O    1.936458   7.358982   6.527073   3.993533   8.400693
    22  H    7.292315   2.768497   7.131170   6.482581   3.989846
    23  H    7.044821   2.763967   5.880971   8.220488   3.820286
    24  H    6.435813   7.361041   7.421792   2.745651   7.801300
    25  H    6.612046   6.311337   3.248983   2.723836   5.732912
    26  H    4.879256   8.285997   5.939578   2.730676   8.605647
    27  H    8.641679   2.737498   4.986431   6.914266   0.963469
    28  H    7.492955   3.172383   2.775202   5.997537   1.746629
    29  H    7.556955   6.717372   2.761001   7.378742   6.086327
    30  H    7.991356   7.013034   2.744519   4.960608   5.956308
    31  H    2.766242   8.343044   6.900129   6.814811   9.391432
    32  H    2.735917   7.354817   8.567366   7.189587   9.080941
    33  H    2.759044   7.421609   6.209280   3.235293   8.264501
                   11         12         13         14         15
    11  O    0.000000
    12  O    3.163343   0.000000
    13  O    8.905133   8.176733   0.000000
    14  O    8.136714   7.258377   3.230635   0.000000
    15  O    8.718006   6.900069   3.280013   3.175014   0.000000
    16  O    6.795501   8.202552   6.822947   5.605433   8.291773
    17  O    4.746687   5.596697   7.083931   5.078716   7.243863
    18  O    7.475552   7.550183   5.159963   2.741315   5.787803
    19  O    7.300038   7.328318   5.718888   7.865508   7.078558
    20  O    7.770515   8.693005   5.458975   7.486343   7.939232
    21  O    8.306408   8.031823   2.762568   5.521086   5.120223
    22  H    4.048170   0.961548   8.027911   7.260123   6.487458
    23  H    0.961294   4.115210   9.214031   8.544206   9.327985
    24  H    9.135565   7.147356   3.708343   4.123383   0.961799
    25  H    7.875230   7.313427   3.860972   0.986070   4.115879
    26  H    9.650392   9.052184   0.963563   3.477982   3.947348
    27  H    3.860285   3.500092   8.623197   6.551667   7.571992
    28  H    4.128441   4.772638   7.406702   5.383675   7.195729
    29  H    6.907660   8.619043   7.747480   6.544091   9.211477
    30  H    8.270341   8.354341   5.810024   3.256615   6.391275
    31  H    8.548007   9.542130   5.646334   7.747079   8.391420
    32  H    7.509689   7.732465   6.665197   8.785045   8.007244
    33  H    8.548182   8.095347   1.794668   4.723067   4.401838
                   16         17         18         19         20
    16  O    0.000000
    17  O    3.184636   0.000000
    18  O    3.274759   3.247039   0.000000
    19  O    8.684387   8.653887   8.807971   0.000000
    20  O    6.760024   7.868934   7.675629   3.224580   0.000000
    21  O    7.381491   7.813693   6.823337   3.185671   3.230347
    22  H    8.806578   6.260793   7.891202   7.215873   8.866736
    23  H    6.554238   4.864999   7.659973   7.410540   7.578043
    24  H    9.133383   8.058353   6.728436   6.996673   8.186864
    25  H    4.764828   4.360113   1.763058   8.203027   7.529412
    26  H    6.891009   7.494906   5.245662   6.387252   5.749543
    27  H    6.454691   3.293252   5.791218   9.413013   9.693124
    28  H    4.136159   0.985142   3.937642   8.664755   8.228684
    29  H    0.961394   3.545063   4.133581   9.248298   7.227940
    30  H    3.608437   3.802048   0.963416   9.730909   8.483390
    31  H    6.815218   8.280901   7.842299   4.068490   0.960912
    32  H    9.262723   9.259867   9.611125   0.961724   3.538055
    33  H    7.162950   7.568753   6.234895   4.088891   3.979030
                   21         22         23         24         25
    21  O    0.000000
    22  H    7.909913   0.000000
    23  H    8.481155   4.984320   0.000000
    24  H    5.225443   6.626056   9.774174   0.000000
    25  H    5.954387   7.441360   8.213682   5.066691   0.000000
    26  H    3.271500   8.936446   9.909096   4.396936   4.023633
    27  H    9.230825   4.200543   4.483923   8.188313   6.191507
    28  H    8.063431   5.470455   4.390007   7.957826   4.784151
    29  H    8.153138   9.292269   6.556142  10.046527   5.688397
    30  H    7.633166   8.702068   8.436525   7.347218   2.292043
    31  H    3.607326   9.731466   8.311892   8.670202   7.753886
    32  H    4.076366   7.646355   7.554708   7.901315   9.088747
    33  H    0.981491   7.955088   8.773830   4.584439   5.221253
                   26         27         28         29         30
    26  H    0.000000
    27  H    9.278057   0.000000
    28  H    7.915005   2.319963   0.000000
    29  H    7.815253   6.739579   4.457939   0.000000
    30  H    5.778729   6.332062   4.518531   4.376118   0.000000
    31  H    5.778386  10.339221   8.732228   7.263711   8.583408
    32  H    7.309919   9.944822   9.248039   9.757866  10.538317
    33  H    2.320193   9.050304   7.850893   7.999320   6.998399
                   31         32         33
    31  H    0.000000
    32  H    4.360996   0.000000
    33  H    4.253095   5.007467   0.000000
 Stoichiometry    H12O16Zr5
 Framework group  C1[X(H12O16Zr5)]
 Deg. of freedom    93
 Full point group                 C1      NOp   1
 Largest Abelian subgroup         C1      NOp   1
 Largest concise Abelian subgroup C1      NOp   1
                         Standard orientation:                         
 ---------------------------------------------------------------------
 Center     Atomic      Atomic             Coordinates (Angstroms)
 Number     Number       Type             X           Y           Z
 ---------------------------------------------------------------------
      1         40           0        0.109759   -0.459014    0.058236
      2          8           0       -0.366947    0.677827    1.162148
      3          8           0        0.729229    0.333168   -1.250005
      4          8           0       -1.231863   -1.304757   -0.417866
      5          8           0        1.222838   -1.461507    0.697862
      6         40           0        3.181709   -1.791704    0.932225
      7         40           0       -2.967695   -2.001858   -0.967768
      8         40           0       -1.770834    1.918744    1.780354
      9         40           0        1.523343    2.065226   -1.784538
     10          8           0       -4.229389   -0.439303   -0.836998
     11          8           0       -3.585908   -3.422563    0.230711
     12          8           0       -2.991559   -2.703532   -2.791951
     13          8           0        3.280704    2.151951   -0.806513
     14          8           0        0.387574    3.526738   -1.226949
     15          8           0        1.796120    2.175693   -3.731223
     16          8           0       -1.811703    2.123223    3.734321
     17          8           0       -3.461824    1.230412    1.161017
     18          8           0       -1.346689    3.679153    0.890575
     19          8           0        3.711975   -3.483773    0.064289
     20          8           0        3.562532   -1.883051    2.859512
     21          8           0        4.119710   -0.324375    0.085485
     22          1           0       -2.460735   -2.717910   -3.593570
     23          1           0       -3.614342   -3.632190    1.168439
     24          1           0        2.367530    1.751617   -4.378299
     25          1           0       -0.252850    3.675850   -0.492132
     26          1           0        3.690557    2.890460   -0.342746
     27          1           0       -4.994075   -0.206927   -1.375077
     28          1           0       -3.871483    0.690350    0.446161
     29          1           0       -2.384320    1.895466    4.472234
     30          1           0       -1.649536    4.571966    1.088915
     31          1           0        4.029683   -1.381765    3.533184
     32          1           0        3.860836   -4.382335    0.373064
     33          1           0        3.949052    0.587191   -0.235838
 ---------------------------------------------------------------------
 Rotational constants (GHZ):           0.1145864           0.0862474           0.0723729
 General basis read from cards:  (5D, 7F)
 ======================================================================================================
                                       Pseudopotential Parameters
 ======================================================================================================
  Center     Atomic      Valence      Angular      Power
  Number     Number     Electrons     Momentum     of R      Exponent        Coefficient   SO-Coeffient
 ======================================================================================================
    1         40           12
                                      F and up 
                                                     0      645.9321873       -0.04258430    0.00000000
                                                     1      134.7547401      -20.22224090    0.00000000
                                                     2       42.3074619     -101.86951720    0.00000000
                                                     2       12.0003227      -41.61957840    0.00000000
                                                     2        4.1260454       -4.69861600    0.00000000
                                      S - F
                                                     0      117.6251862        2.79105590    0.00000000
                                                     1       22.9646089       41.94894590    0.00000000
                                                     2        4.5225298       67.72718660    0.00000000
                                      P - F
                                                     0       47.1953145        4.99111440    0.00000000
                                                     1       48.0356033       20.71931720    0.00000000
                                                     2       19.4541456      195.58677580    0.00000000
                                                     2        4.0512875       48.28771760    0.00000000
                                      D - F
                                                     0       79.9073983        3.00492260    0.00000000
                                                     1       45.8263798       25.93779890    0.00000000
                                                     2       26.9903522      125.12449340    0.00000000
                                                     2        9.6835718       70.76340220    0.00000000
                                                     2        2.7995666       15.04928220    0.00000000
    2          8
                                   No pseudopotential on this center.
    3          8
                                   No pseudopotential on this center.
    4          8
                                   No pseudopotential on this center.
    5          8
                                   No pseudopotential on this center.
    6         40           12
                                      F and up 
                                                     0      645.9321873       -0.04258430    0.00000000
                                                     1      134.7547401      -20.22224090    0.00000000
                                                     2       42.3074619     -101.86951720    0.00000000
                                                     2       12.0003227      -41.61957840    0.00000000
                                                     2        4.1260454       -4.69861600    0.00000000
                                      S - F
                                                     0      117.6251862        2.79105590    0.00000000
                                                     1       22.9646089       41.94894590    0.00000000
                                                     2        4.5225298       67.72718660    0.00000000
                                      P - F
                                                     0       47.1953145        4.99111440    0.00000000
                                                     1       48.0356033       20.71931720    0.00000000
                                                     2       19.4541456      195.58677580    0.00000000
                                                     2        4.0512875       48.28771760    0.00000000
                                      D - F
                                                     0       79.9073983        3.00492260    0.00000000
                                                     1       45.8263798       25.93779890    0.00000000
                                                     2       26.9903522      125.12449340    0.00000000
                                                     2        9.6835718       70.76340220    0.00000000
                                                     2        2.7995666       15.04928220    0.00000000
    7         40           12
                                      F and up 
                                                     0      645.9321873       -0.04258430    0.00000000
                                                     1      134.7547401      -20.22224090    0.00000000
                                                     2       42.3074619     -101.86951720    0.00000000
                                                     2       12.0003227      -41.61957840    0.00000000
                                                     2        4.1260454       -4.69861600    0.00000000
                                      S - F
                                                     0      117.6251862        2.79105590    0.00000000
                                                     1       22.9646089       41.94894590    0.00000000
                                                     2        4.5225298       67.72718660    0.00000000
                                      P - F
                                                     0       47.1953145        4.99111440    0.00000000
                                                     1       48.0356033       20.71931720    0.00000000
                                                     2       19.4541456      195.58677580    0.00000000
                                                     2        4.0512875       48.28771760    0.00000000
                                      D - F
                                                     0       79.9073983        3.00492260    0.00000000
                                                     1       45.8263798       25.93779890    0.00000000
                                                     2       26.9903522      125.12449340    0.00000000
                                                     2        9.6835718       70.76340220    0.00000000
                                                     2        2.7995666       15.04928220    0.00000000
    8         40           12
                                      F and up 
                                                     0      645.9321873       -0.04258430    0.00000000
                                                     1      134.7547401      -20.22224090    0.00000000
                                                     2       42.3074619     -101.86951720    0.00000000
                                                     2       12.0003227      -41.61957840    0.00000000
                                                     2        4.1260454       -4.69861600    0.00000000
                                      S - F
                                                     0      117.6251862        2.79105590    0.00000000
                                                     1       22.9646089       41.94894590    0.00000000
                                                     2        4.5225298       67.72718660    0.00000000
                                      P - F
                                                     0       47.1953145        4.99111440    0.00000000
                                                     1       48.0356033       20.71931720    0.00000000
                                                     2       19.4541456      195.58677580    0.00000000
                                                     2        4.0512875       48.28771760    0.00000000
                                      D - F
                                                     0       79.9073983        3.00492260    0.00000000
                                                     1       45.8263798       25.93779890    0.00000000
                                                     2       26.9903522      125.12449340    0.00000000
                                                     2        9.6835718       70.76340220    0.00000000
                                                     2        2.7995666       15.04928220    0.00000000
    9         40           12
                                      F and up 
                                                     0      645.9321873       -0.04258430    0.00000000
                                                     1      134.7547401      -20.22224090    0.00000000
                                                     2       42.3074619     -101.86951720    0.00000000
                                                     2       12.0003227      -41.61957840    0.00000000
                                                     2        4.1260454       -4.69861600    0.00000000
                                      S - F
                                                     0      117.6251862        2.79105590    0.00000000
                                                     1       22.9646089       41.94894590    0.00000000
                                                     2        4.5225298       67.72718660    0.00000000
                                      P - F
                                                     0       47.1953145        4.99111440    0.00000000
                                                     1       48.0356033       20.71931720    0.00000000
                                                     2       19.4541456      195.58677580    0.00000000
                                                     2        4.0512875       48.28771760    0.00000000
                                      D - F
                                                     0       79.9073983        3.00492260    0.00000000
                                                     1       45.8263798       25.93779890    0.00000000
                                                     2       26.9903522      125.12449340    0.00000000
                                                     2        9.6835718       70.76340220    0.00000000
                                                     2        2.7995666       15.04928220    0.00000000
   10          8
                                   No pseudopotential on this center.
   11          8
                                   No pseudopotential on this center.
   12          8
                                   No pseudopotential on this center.
   13          8
                                   No pseudopotential on this center.
   14          8
                                   No pseudopotential on this center.
   15          8
                                   No pseudopotential on this center.
   16          8
                                   No pseudopotential on this center.
   17          8
                                   No pseudopotential on this center.
   18          8
                                   No pseudopotential on this center.
   19          8
                                   No pseudopotential on this center.
   20          8
                                   No pseudopotential on this center.
   21          8
                                   No pseudopotential on this center.
   22          1
                                   No pseudopotential on this center.
   23          1
                                   No pseudopotential on this center.
   24          1
                                   No pseudopotential on this center.
   25          1
                                   No pseudopotential on this center.
   26          1
                                   No pseudopotential on this center.
   27          1
                                   No pseudopotential on this center.
   28          1
                                   No pseudopotential on this center.
   29          1
                                   No pseudopotential on this center.
   30          1
                                   No pseudopotential on this center.
   31          1
                                   No pseudopotential on this center.
   32          1
                                   No pseudopotential on this center.
   33          1
                                   No pseudopotential on this center.
 ======================================================================================================
 There are   420 symmetry adapted cartesian basis functions of A   symmetry.
 There are   394 symmetry adapted basis functions of A   symmetry.
   394 basis functions,   777 primitive gaussians,   420 cartesian basis functions
   100 alpha electrons      100 beta electrons
       nuclear repulsion energy      2412.8457351060 Hartrees.
 NAtoms=   33 NActive=   33 NUniq=   33 SFac= 1.00D+00 NAtFMM=   60 NAOKFM=F Big=F
 Integral buffers will be    131072 words long.
 Raffenetti 2 integral format.
 Two-electron integral symmetry is turned on.
 One-electron integrals computed using PRISM.
   1 Symmetry operations used in ECPInt.
 ECPInt:  NShTT=    9870 NPrTT=   52070 LenC2=    8289 LenP2D=   28374.
 LDataN:  DoStor=T MaxTD1= 5 Len=  102
 NBasis=   394 RedAO= T EigKep=  1.98D-03  NBF=   394
 NBsUse=   394 1.00D-06 EigRej= -1.00D+00 NBFU=   394
 Defaulting to unpruned grid for atomic number  40.
 Defaulting to unpruned grid for atomic number  40.
 Defaulting to unpruned grid for atomic number  40.
 ExpMin= 2.43D-02 ExpMax= 5.48D+03 ExpMxC= 8.25D+02 IAcc=3 IRadAn=         5 AccDes= 0.00D+00
 Harris functional with IExCor=  402 and IRadAn=       5 diagonalized for initial guess.
 HarFok:  IExCor=  402 AccDes= 0.00D+00 IRadAn=         5 IDoV= 1 UseB2=F ITyADJ=14
 ICtDFT=  3500011 ScaDFX=  1.000000  1.000000  1.000000  1.000000
 Defaulting to unpruned grid for atomic number  40.
 FoFCou: FMM=F IPFlag=           0 FMFlag=      100000 FMFlg1=           0
         NFxFlg=           0 DoJE=T BraDBF=F KetDBF=T FulRan=T
         wScrn=  0.000000 ICntrl=       500 IOpCl=  0 I1Cent=   200000004 NGrid=           0
         NMat0=    1 NMatS0=      1 NMatT0=    0 NMatD0=    1 NMtDS0=    0 NMtDT0=    0
 Petite list used in FoFCou.
 Requested convergence on RMS density matrix=1.00D-08 within 128 cycles.
 Requested convergence on MAX density matrix=1.00D-06.
 Requested convergence on             energy=1.00D-06.
 No special actions if energy rises.
 Defaulting to unpruned grid for atomic number  40.
 Defaulting to unpruned grid for atomic number  40.
 Defaulting to unpruned grid for atomic number  40.
 Defaulting to unpruned grid for atomic number  40.
 Defaulting to unpruned grid for atomic number  40.
 Defaulting to unpruned grid for atomic number  40.
 Defaulting to unpruned grid for atomic number  40.
 Defaulting to unpruned grid for atomic number  40.
 Defaulting to unpruned grid for atomic number  40.
 Defaulting to unpruned grid for atomic number  40.
 Defaulting to unpruned grid for atomic number  40.
 Defaulting to unpruned grid for atomic number  40.
 Defaulting to unpruned grid for atomic number  40.
 Defaulting to unpruned grid for atomic number  40.
 Defaulting to unpruned grid for atomic number  40.
 Defaulting to unpruned grid for atomic number  40.
 SCF Done:  E(RB3LYP) =  -1444.58106477     A.U. after   17 cycles
            NFock= 17  Conv=0.75D-08     -V/T= 2.1306

 **********************************************************************

            Population analysis using the SCF Density.

 **********************************************************************

 Orbital symmetries:
       Occupied  (A) (A) (A) (A) (A) (A) (A) (A) (A) (A) (A) (A)
                 (A) (A) (A) (A) (A) (A) (A) (A) (A) (A) (A) (A)
                 (A) (A) (A) (A) (A) (A) (A) (A) (A) (A) (A) (A)
                 (A) (A) (A) (A) (A) (A) (A) (A) (A) (A) (A) (A)
                 (A) (A) (A) (A) (A) (A) (A) (A) (A) (A) (A) (A)
                 (A) (A) (A) (A) (A) (A) (A) (A) (A) (A) (A) (A)
                 (A) (A) (A) (A) (A) (A) (A) (A) (A) (A) (A) (A)
                 (A) (A) (A) (A) (A) (A) (A) (A) (A) (A) (A) (A)
                 (A) (A) (A) (A)
       Virtual   (A) (A) (A) (A) (A) (A) (A) (A) (A) (A) (A) (A)
                 (A) (A) (A) (A) (A) (A) (A) (A) (A) (A) (A) (A)
                 (A) (A) (A) (A) (A) (A) (A) (A) (A) (A) (A) (A)
                 (A) (A) (A) (A) (A) (A) (A) (A) (A) (A) (A) (A)
                 (A) (A) (A) (A) (A) (A) (A) (A) (A) (A) (A) (A)
                 (A) (A) (A) (A) (A) (A) (A) (A) (A) (A) (A) (A)
                 (A) (A) (A) (A) (A) (A) (A) (A) (A) (A) (A) (A)
                 (A) (A) (A) (A) (A) (A) (A) (A) (A) (A) (A) (A)
                 (A) (A) (A) (A) (A) (A) (A) (A) (A) (A) (A) (A)
                 (A) (A) (A) (A) (A) (A) (A) (A) (A) (A) (A) (A)
                 (A) (A) (A) (A) (A) (A) (A) (A) (A) (A) (A) (A)
                 (A) (A) (A) (A) (A) (A) (A) (A) (A) (A) (A) (A)
                 (A) (A) (A) (A) (A) (A) (A) (A) (A) (A) (A) (A)
                 (A) (A) (A) (A) (A) (A) (A) (A) (A) (A) (A) (A)
                 (A) (A) (A) (A) (A) (A) (A) (A) (A) (A) (A) (A)
                 (A) (A) (A) (A) (A) (A) (A) (A) (A) (A) (A) (A)
                 (A) (A) (A) (A) (A) (A) (A) (A) (A) (A) (A) (A)
                 (A) (A) (A) (A) (A) (A) (A) (A) (A) (A) (A) (A)
                 (A) (A) (A) (A) (A) (A) (A) (A) (A) (A) (A) (A)
                 (A) (A) (A) (A) (A) (A) (A) (A) (A) (A) (A) (A)
                 (A) (A) (A) (A) (A) (A) (A) (A) (A) (A) (A) (A)
                 (A) (A) (A) (A) (A) (A) (A) (A) (A) (A) (A) (A)
                 (A) (A) (A) (A) (A) (A) (A) (A) (A) (A) (A) (A)
                 (A) (A) (A) (A) (A) (A) (A) (A) (A) (A) (A) (A)
                 (A) (A) (A) (A) (A) (A)
 The electronic state is 1-A.
 Alpha  occ. eigenvalues --  -19.15262 -19.14744 -19.14701 -19.14645 -19.14081
 Alpha  occ. eigenvalues --  -19.14013 -19.13147 -19.13146 -19.12967 -19.12529
 Alpha  occ. eigenvalues --  -19.12188 -19.11749 -19.11199 -19.10791 -19.10546
 Alpha  occ. eigenvalues --  -19.09511  -2.06431  -2.05867  -2.05371  -2.04350
 Alpha  occ. eigenvalues --   -1.93603  -1.27697  -1.27023  -1.26993  -1.26844
 Alpha  occ. eigenvalues --   -1.26722  -1.26624  -1.26280  -1.26105  -1.25847
 Alpha  occ. eigenvalues --   -1.25446  -1.25278  -1.24911  -1.22374  -1.21932
 Alpha  occ. eigenvalues --   -1.21713  -0.97187  -0.96647  -0.96378  -0.95882
 Alpha  occ. eigenvalues --   -0.95246  -0.95044  -0.94464  -0.94400  -0.93409
 Alpha  occ. eigenvalues --   -0.93369  -0.92764  -0.92126  -0.88769  -0.83603
 Alpha  occ. eigenvalues --   -0.83054  -0.81710  -0.50145  -0.49327  -0.49079
 Alpha  occ. eigenvalues --   -0.48900  -0.48257  -0.48123  -0.47399  -0.47205
 Alpha  occ. eigenvalues --   -0.46959  -0.46395  -0.46136  -0.45659  -0.42161
 Alpha  occ. eigenvalues --   -0.41675  -0.41136  -0.40296  -0.40265  -0.35876
 Alpha  occ. eigenvalues --   -0.35534  -0.35452  -0.35371  -0.34750  -0.34689
 Alpha  occ. eigenvalues --   -0.34392  -0.34042  -0.33689  -0.33420  -0.33323
 Alpha  occ. eigenvalues --   -0.32969  -0.32793  -0.32316  -0.32176  -0.31982
 Alpha  occ. eigenvalues --   -0.31614  -0.31508  -0.31073  -0.31026  -0.30999
 Alpha  occ. eigenvalues --   -0.30736  -0.30605  -0.30554  -0.30314  -0.29945
 Alpha  occ. eigenvalues --   -0.29736  -0.28751  -0.28629  -0.28487  -0.27942
 Alpha virt. eigenvalues --   -0.03097  -0.02746  -0.02405  -0.01890  -0.01559
 Alpha virt. eigenvalues --   -0.01440  -0.01239  -0.00899  -0.00547  -0.00229
 Alpha virt. eigenvalues --   -0.00023   0.00352   0.00430   0.00755   0.00882
 Alpha virt. eigenvalues --    0.01038   0.01416   0.01560   0.01673   0.01799
 Alpha virt. eigenvalues --    0.02324   0.02371   0.02574   0.02909   0.03013
 Alpha virt. eigenvalues --    0.03133   0.03647   0.04038   0.04374   0.04671
 Alpha virt. eigenvalues --    0.04953   0.05189   0.06141   0.06689   0.07053
 Alpha virt. eigenvalues --    0.07264   0.09285   0.10196   0.11565   0.12109
 Alpha virt. eigenvalues --    0.13868   0.15207   0.15416   0.16115   0.16630
 Alpha virt. eigenvalues --    0.16841   0.17100   0.17321   0.18041   0.18498
 Alpha virt. eigenvalues --    0.18552   0.18890   0.19387   0.19719   0.19898
 Alpha virt. eigenvalues --    0.20772   0.21224   0.22422   0.22672   0.22950
 Alpha virt. eigenvalues --    0.23302   0.23483   0.23804   0.23996   0.24257
 Alpha virt. eigenvalues --    0.24995   0.25213   0.25618   0.25934   0.26347
 Alpha virt. eigenvalues --    0.26944   0.27688   0.28100   0.28355   0.29003
 Alpha virt. eigenvalues --    0.29253   0.29813   0.30426   0.30484   0.30794
 Alpha virt. eigenvalues --    0.31530   0.32000   0.32348   0.34621   0.34905
 Alpha virt. eigenvalues --    0.37106   0.38023   0.38440   0.39675   0.41119
 Alpha virt. eigenvalues --    0.42947   0.43224   0.45171   0.47331   0.47793
 Alpha virt. eigenvalues --    0.52320   0.56225   0.77441   0.82848   0.83834
 Alpha virt. eigenvalues --    0.84428   0.85151   0.86264   0.86357   0.86654
 Alpha virt. eigenvalues --    0.88220   0.88684   0.88866   0.89970   0.91291
 Alpha virt. eigenvalues --    0.92145   0.92510   0.94838   0.95185   0.96685
 Alpha virt. eigenvalues --    0.97394   0.98219   0.98936   0.99600   1.00323
 Alpha virt. eigenvalues --    1.01985   1.02041   1.02695   1.03927   1.05052
 Alpha virt. eigenvalues --    1.05770   1.06552   1.07445   1.08884   1.09514
 Alpha virt. eigenvalues --    1.10221   1.11225   1.12442   1.13421   1.13801
 Alpha virt. eigenvalues --    1.14200   1.14828   1.15596   1.17352   1.17594
 Alpha virt. eigenvalues --    1.17991   1.18983   1.19862   1.20841   1.21918
 Alpha virt. eigenvalues --    1.22749   1.22810   1.24782   1.25705   1.26919
 Alpha virt. eigenvalues --    1.27705   1.29555   1.30605   1.32321   1.33208
 Alpha virt. eigenvalues --    1.34449   1.35932   1.42651   1.43690   1.46420
 Alpha virt. eigenvalues --    1.47868   1.50306   1.51150   1.51435   1.52017
 Alpha virt. eigenvalues --    1.52620   1.54197   1.55550   1.56886   1.57440
 Alpha virt. eigenvalues --    1.57853   1.58430   1.58776   1.59140   1.59550
 Alpha virt. eigenvalues --    1.59903   1.60453   1.61375   1.61556   1.61843
 Alpha virt. eigenvalues --    1.62087   1.62516   1.62887   1.63330   1.64352
 Alpha virt. eigenvalues --    1.64747   1.65538   1.65952   1.66949   1.67757
 Alpha virt. eigenvalues --    1.68713   1.69163   1.69723   1.70495   1.70995
 Alpha virt. eigenvalues --    1.71487   1.72170   1.72686   1.73333   1.73974
 Alpha virt. eigenvalues --    1.77197   1.77660   1.77899   1.78324   1.78482
 Alpha virt. eigenvalues --    1.79314   1.79840   1.80033   1.81003   1.81329
 Alpha virt. eigenvalues --    1.81674   1.81961   1.82110   1.82272   1.82958
 Alpha virt. eigenvalues --    1.83478   1.83569   1.83904   1.84410   1.85290
 Alpha virt. eigenvalues --    1.85500   1.85652   1.85940   1.86392   1.86909
 Alpha virt. eigenvalues --    1.87060   1.87619   1.88070   1.88458   1.89197
 Alpha virt. eigenvalues --    1.90576   1.91106   1.91814   1.92833   1.92905
 Alpha virt. eigenvalues --    1.93130   2.11987   2.13209   2.16624   2.17026
 Alpha virt. eigenvalues --    2.19519   2.35759   2.36320   2.36680   2.36877
 Alpha virt. eigenvalues --    2.37873   2.37987   2.38263   2.38879   2.39411
 Alpha virt. eigenvalues --    2.50955   2.51611   2.52890   2.60853   2.61443
 Alpha virt. eigenvalues --    2.62681   2.62890   2.63164   2.63544   2.63776
 Alpha virt. eigenvalues --    2.63940   2.64232   2.64488   2.64644   2.64765
 Alpha virt. eigenvalues --    2.64803   2.64850   2.65251   2.65313   2.65747
 Alpha virt. eigenvalues --    2.66046   2.66646   2.66801   2.69616   2.71794
 Alpha virt. eigenvalues --    2.72128   2.74147   3.40579   3.41630   3.41795
 Alpha virt. eigenvalues --    3.42072   3.43293   3.44371   3.44941   3.45456
 Alpha virt. eigenvalues --    3.45955   3.53791   3.55083   3.55858   4.36688
 Alpha virt. eigenvalues --    5.95028   6.42367   6.72370  13.66815
          Condensed to atoms (all electrons):
               1          2          3          4          5          6
     1  Zr  11.820228  -0.081288  -0.071991  -0.101440  -0.069496  -0.228048
     2  O   -0.081288   8.577837   0.007176   0.008218   0.009315   0.002690
     3  O   -0.071991   0.007176   8.562683   0.008271   0.009760   0.016911
     4  O   -0.101440   0.008218   0.008271   8.581687   0.010134   0.013422
     5  O   -0.069496   0.009315   0.009760   0.010134   8.546398   0.204676
     6  Zr  -0.228048   0.002690   0.016911   0.013422   0.204676   9.837007
     7  Zr  -0.251318   0.009915   0.007084   0.220157   0.009286   0.015898
     8  Zr  -0.321728   0.213086   0.013830   0.019737   0.016406   0.024661
     9  Zr  -0.283798   0.023509   0.207829   0.010227   0.008684   0.039330
    10  O   -0.002140  -0.000000  -0.000000   0.001168  -0.000000   0.000056
    11  O    0.003861   0.000000  -0.000000   0.001317  -0.000000  -0.000059
    12  O   -0.001091  -0.000000  -0.000000   0.001466  -0.000000  -0.000022
    13  O   -0.004217  -0.000014   0.000700  -0.000000  -0.000004  -0.002112
    14  O   -0.018722  -0.000293   0.001374  -0.000000  -0.000000   0.000172
    15  O   -0.003002  -0.000000   0.000924   0.000000  -0.000000  -0.000203
    16  O   -0.001882   0.001130  -0.000000  -0.000000  -0.000000  -0.000250
    17  O   -0.011073   0.001326  -0.000000  -0.000400  -0.000000  -0.000219
    18  O   -0.009745   0.000935   0.000004   0.000000  -0.000000   0.000223
    19  O    0.002117  -0.000000  -0.000000   0.000000   0.000756   0.210119
    20  O    0.001631   0.000000  -0.000000  -0.000000   0.000815   0.216572
    21  O   -0.004032  -0.000002  -0.000458  -0.000000   0.000793   0.226804
    22  H    0.001476  -0.000000  -0.000001  -0.000232  -0.000000  -0.000070
    23  H    0.003070   0.000000  -0.000000  -0.000261  -0.000000  -0.000065
    24  H    0.001031  -0.000000  -0.000184   0.000000   0.000000  -0.000069
    25  H   -0.000265  -0.000548  -0.000288   0.000002  -0.000000   0.000121
    26  H    0.004534   0.000001   0.000016  -0.000000   0.000000  -0.000278
    27  H    0.001909  -0.000000   0.000000   0.000027  -0.000000  -0.000006
    28  H    0.003418  -0.000265  -0.000002  -0.000632  -0.000000  -0.000063
    29  H    0.001143  -0.000026   0.000000   0.000000  -0.000000  -0.000026
    30  H    0.000709   0.000039  -0.000000   0.000000   0.000000  -0.000032
    31  H    0.001513  -0.000000  -0.000000  -0.000000  -0.000021  -0.017877
    32  H    0.000377   0.000000   0.000000  -0.000000  -0.000074  -0.015431
    33  H    0.002831  -0.000006  -0.000688  -0.000001  -0.000289  -0.016613
               7          8          9         10         11         12
     1  Zr  -0.251318  -0.321728  -0.283798  -0.002140   0.003861  -0.001091
     2  O    0.009915   0.213086   0.023509  -0.000000   0.000000  -0.000000
     3  O    0.007084   0.013830   0.207829  -0.000000  -0.000000  -0.000000
     4  O    0.220157   0.019737   0.010227   0.001168   0.001317   0.001466
     5  O    0.009286   0.016406   0.008684  -0.000000  -0.000000  -0.000000
     6  Zr   0.015898   0.024661   0.039330   0.000056  -0.000059  -0.000022
     7  Zr   9.827927   0.053416   0.026848   0.173986   0.209434   0.218000
     8  Zr   0.053416   9.867858   0.059733   0.001780  -0.000871  -0.000039
     9  Zr   0.026848   0.059733   9.852568  -0.000530  -0.000025  -0.000142
    10  O    0.173986   0.001780  -0.000530   8.241968   0.000099   0.000732
    11  O    0.209434  -0.000871  -0.000025   0.000099   8.183466   0.000988
    12  O    0.218000  -0.000039  -0.000142   0.000732   0.000988   8.175553
    13  O   -0.000058  -0.001071   0.184399   0.000000  -0.000000   0.000000
    14  O    0.000403   0.011049   0.241349   0.000000   0.000000  -0.000000
    15  O   -0.000117  -0.000079   0.216436  -0.000000   0.000000   0.000000
    16  O   -0.000352   0.219353  -0.000249   0.000000  -0.000000   0.000000
    17  O    0.014487   0.229929   0.000202  -0.022233   0.000001  -0.000000
    18  O   -0.000255   0.175806   0.005062   0.000000  -0.000000   0.000000
    19  O   -0.000237   0.000052  -0.001033   0.000000  -0.000000   0.000000
    20  O    0.000231  -0.000441  -0.000649  -0.000000   0.000000  -0.000000
    21  O    0.000004   0.000182   0.009479   0.000000   0.000000   0.000000
    22  H   -0.015538  -0.000038  -0.000089  -0.000103   0.000004   0.297713
    23  H   -0.018685  -0.000318   0.000010  -0.000228   0.297911   0.000023
    24  H   -0.000005   0.000061  -0.016519   0.000000  -0.000000   0.000000
    25  H   -0.000147   0.003099  -0.014283   0.000000   0.000000   0.000000
    26  H    0.000009  -0.000315  -0.019613  -0.000000  -0.000000   0.000000
    27  H   -0.016385  -0.000152  -0.000013   0.297342  -0.000201  -0.000682
    28  H   -0.001317  -0.015460  -0.000431   0.054372  -0.000156   0.000012
    29  H   -0.000218  -0.015787   0.000060  -0.000000  -0.000000   0.000000
    30  H    0.000055  -0.013291  -0.000071   0.000000   0.000000   0.000000
    31  H   -0.000011   0.000035  -0.000116   0.000000   0.000000  -0.000000
    32  H    0.000034  -0.000010   0.000104   0.000000   0.000000   0.000000
    33  H   -0.000077  -0.000362   0.001888  -0.000000  -0.000000   0.000000
              13         14         15         16         17         18
     1  Zr  -0.004217  -0.018722  -0.003002  -0.001882  -0.011073  -0.009745
     2  O   -0.000014  -0.000293  -0.000000   0.001130   0.001326   0.000935
     3  O    0.000700   0.001374   0.000924  -0.000000  -0.000000   0.000004
     4  O   -0.000000  -0.000000   0.000000  -0.000000  -0.000400   0.000000
     5  O   -0.000004  -0.000000  -0.000000  -0.000000  -0.000000  -0.000000
     6  Zr  -0.002112   0.000172  -0.000203  -0.000250  -0.000219   0.000223
     7  Zr  -0.000058   0.000403  -0.000117  -0.000352   0.014487  -0.000255
     8  Zr  -0.001071   0.011049  -0.000079   0.219353   0.229929   0.175806
     9  Zr   0.184399   0.241349   0.216436  -0.000249   0.000202   0.005062
    10  O    0.000000   0.000000  -0.000000   0.000000  -0.022233   0.000000
    11  O   -0.000000   0.000000   0.000000  -0.000000   0.000001  -0.000000
    12  O    0.000000  -0.000000   0.000000   0.000000  -0.000000   0.000000
    13  O    8.234888   0.000746   0.000493  -0.000000  -0.000000   0.000000
    14  O    0.000746   8.224322   0.001321   0.000000   0.000001  -0.020802
    15  O    0.000493   0.001321   8.188519   0.000000  -0.000000   0.000000
    16  O   -0.000000   0.000000   0.000000   8.182090   0.001053   0.000620
    17  O   -0.000000   0.000001  -0.000000   0.001053   8.231359   0.000490
    18  O    0.000000  -0.020802   0.000000   0.000620   0.000490   8.248260
    19  O    0.000000   0.000000  -0.000000   0.000000  -0.000000   0.000000
    20  O    0.000000   0.000000   0.000000  -0.000000   0.000000  -0.000000
    21  O   -0.019058   0.000000   0.000000   0.000000   0.000000  -0.000000
    22  H    0.000000   0.000000   0.000000   0.000000  -0.000000  -0.000000
    23  H   -0.000000  -0.000000   0.000000   0.000000  -0.000001  -0.000000
    24  H   -0.000332   0.000017   0.294998  -0.000000  -0.000000   0.000000
    25  H   -0.000238   0.272864   0.000027   0.000004  -0.000051   0.053988
    26  H    0.297359  -0.000901  -0.000109   0.000000  -0.000000  -0.000000
    27  H    0.000000  -0.000000   0.000000  -0.000000   0.000548   0.000000
    28  H    0.000000   0.000001   0.000000   0.000024   0.272871  -0.000146
    29  H   -0.000000  -0.000000  -0.000000   0.296424  -0.000539  -0.000014
    30  H    0.000000   0.000543  -0.000000  -0.000419  -0.000232   0.295631
    31  H    0.000000   0.000000   0.000000   0.000000  -0.000000   0.000000
    32  H   -0.000000  -0.000000   0.000000   0.000000   0.000000  -0.000000
    33  H    0.050697   0.000005  -0.000031   0.000000   0.000000   0.000000
              19         20         21         22         23         24
     1  Zr   0.002117   0.001631  -0.004032   0.001476   0.003070   0.001031
     2  O   -0.000000   0.000000  -0.000002  -0.000000   0.000000  -0.000000
     3  O   -0.000000  -0.000000  -0.000458  -0.000001  -0.000000  -0.000184
     4  O    0.000000  -0.000000  -0.000000  -0.000232  -0.000261   0.000000
     5  O    0.000756   0.000815   0.000793  -0.000000  -0.000000   0.000000
     6  Zr   0.210119   0.216572   0.226804  -0.000070  -0.000065  -0.000069
     7  Zr  -0.000237   0.000231   0.000004  -0.015538  -0.018685  -0.000005
     8  Zr   0.000052  -0.000441   0.000182  -0.000038  -0.000318   0.000061
     9  Zr  -0.001033  -0.000649   0.009479  -0.000089   0.000010  -0.016519
    10  O    0.000000  -0.000000   0.000000  -0.000103  -0.000228   0.000000
    11  O   -0.000000   0.000000   0.000000   0.000004   0.297911  -0.000000
    12  O    0.000000  -0.000000   0.000000   0.297713   0.000023   0.000000
    13  O    0.000000   0.000000  -0.019058   0.000000  -0.000000  -0.000332
    14  O    0.000000   0.000000   0.000000   0.000000  -0.000000   0.000017
    15  O   -0.000000   0.000000   0.000000   0.000000   0.000000   0.294998
    16  O    0.000000  -0.000000   0.000000   0.000000   0.000000  -0.000000
    17  O   -0.000000   0.000000   0.000000  -0.000000  -0.000001  -0.000000
    18  O    0.000000  -0.000000  -0.000000  -0.000000  -0.000000   0.000000
    19  O    8.195551   0.000707   0.001022   0.000000  -0.000000   0.000000
    20  O    0.000707   8.183427   0.001011  -0.000000   0.000000   0.000000
    21  O    0.001022   0.001011   8.228501   0.000000   0.000000   0.000001
    22  H    0.000000  -0.000000   0.000000   0.380973  -0.000001  -0.000000
    23  H   -0.000000   0.000000   0.000000  -0.000001   0.386366   0.000000
    24  H    0.000000   0.000000   0.000001  -0.000000   0.000000   0.391064
    25  H   -0.000000   0.000000   0.000000  -0.000000  -0.000000  -0.000002
    26  H   -0.000000  -0.000000   0.000541   0.000000   0.000000   0.000002
    27  H   -0.000000  -0.000000   0.000000   0.000000   0.000001  -0.000000
    28  H   -0.000000   0.000000   0.000000   0.000000  -0.000011  -0.000000
    29  H    0.000000   0.000000  -0.000000  -0.000000   0.000000   0.000000
    30  H   -0.000000  -0.000000  -0.000000   0.000000   0.000000   0.000000
    31  H   -0.000042   0.296480  -0.000535  -0.000000   0.000000   0.000000
    32  H    0.293726  -0.000542   0.000012   0.000000  -0.000000  -0.000000
    33  H    0.000014  -0.000138   0.275219   0.000000   0.000000  -0.000008
              25         26         27         28         29         30
     1  Zr  -0.000265   0.004534   0.001909   0.003418   0.001143   0.000709
     2  O   -0.000548   0.000001  -0.000000  -0.000265  -0.000026   0.000039
     3  O   -0.000288   0.000016   0.000000  -0.000002   0.000000  -0.000000
     4  O    0.000002  -0.000000   0.000027  -0.000632   0.000000   0.000000
     5  O   -0.000000   0.000000  -0.000000  -0.000000  -0.000000   0.000000
     6  Zr   0.000121  -0.000278  -0.000006  -0.000063  -0.000026  -0.000032
     7  Zr  -0.000147   0.000009  -0.016385  -0.001317  -0.000218   0.000055
     8  Zr   0.003099  -0.000315  -0.000152  -0.015460  -0.015787  -0.013291
     9  Zr  -0.014283  -0.019613  -0.000013  -0.000431   0.000060  -0.000071
    10  O    0.000000  -0.000000   0.297342   0.054372  -0.000000   0.000000
    11  O    0.000000  -0.000000  -0.000201  -0.000156  -0.000000   0.000000
    12  O    0.000000   0.000000  -0.000682   0.000012   0.000000   0.000000
    13  O   -0.000238   0.297359   0.000000   0.000000  -0.000000   0.000000
    14  O    0.272864  -0.000901  -0.000000   0.000001  -0.000000   0.000543
    15  O    0.000027  -0.000109   0.000000   0.000000  -0.000000  -0.000000
    16  O    0.000004   0.000000  -0.000000   0.000024   0.296424  -0.000419
    17  O   -0.000051  -0.000000   0.000548   0.272871  -0.000539  -0.000232
    18  O    0.053988  -0.000000   0.000000  -0.000146  -0.000014   0.295631
    19  O   -0.000000  -0.000000  -0.000000  -0.000000   0.000000  -0.000000
    20  O    0.000000  -0.000000  -0.000000   0.000000   0.000000  -0.000000
    21  O    0.000000   0.000541   0.000000   0.000000  -0.000000  -0.000000
    22  H   -0.000000   0.000000   0.000000   0.000000  -0.000000   0.000000
    23  H   -0.000000   0.000000   0.000001  -0.000011   0.000000   0.000000
    24  H   -0.000002   0.000002  -0.000000  -0.000000   0.000000   0.000000
    25  H    0.311216  -0.000026  -0.000000  -0.000002  -0.000000  -0.001727
    26  H   -0.000026   0.385101   0.000000   0.000000  -0.000000   0.000000
    27  H   -0.000000   0.000000   0.381036  -0.001440   0.000000  -0.000000
    28  H   -0.000002   0.000000  -0.001440   0.312860  -0.000010  -0.000002
    29  H   -0.000000  -0.000000   0.000000  -0.000010   0.386336   0.000001
    30  H   -0.001727   0.000000  -0.000000  -0.000002   0.000001   0.383605
    31  H   -0.000000   0.000000  -0.000000   0.000000   0.000000  -0.000000
    32  H   -0.000000   0.000000   0.000000   0.000000   0.000000   0.000000
    33  H    0.000000  -0.001698   0.000000   0.000000  -0.000000  -0.000000
              31         32         33
     1  Zr   0.001513   0.000377   0.002831
     2  O   -0.000000   0.000000  -0.000006
     3  O   -0.000000   0.000000  -0.000688
     4  O   -0.000000  -0.000000  -0.000001
     5  O   -0.000021  -0.000074  -0.000289
     6  Zr  -0.017877  -0.015431  -0.016613
     7  Zr  -0.000011   0.000034  -0.000077
     8  Zr   0.000035  -0.000010  -0.000362
     9  Zr  -0.000116   0.000104   0.001888
    10  O    0.000000   0.000000  -0.000000
    11  O    0.000000   0.000000  -0.000000
    12  O   -0.000000   0.000000   0.000000
    13  O    0.000000  -0.000000   0.050697
    14  O    0.000000  -0.000000   0.000005
    15  O    0.000000   0.000000  -0.000031
    16  O    0.000000   0.000000   0.000000
    17  O   -0.000000   0.000000   0.000000
    18  O    0.000000  -0.000000   0.000000
    19  O   -0.000042   0.293726   0.000014
    20  O    0.296480  -0.000542  -0.000138
    21  O   -0.000535   0.000012   0.275219
    22  H   -0.000000   0.000000   0.000000
    23  H    0.000000  -0.000000   0.000000
    24  H    0.000000  -0.000000  -0.000008
    25  H   -0.000000  -0.000000   0.000000
    26  H    0.000000   0.000000  -0.001698
    27  H   -0.000000   0.000000   0.000000
    28  H    0.000000   0.000000   0.000000
    29  H    0.000000   0.000000  -0.000000
    30  H   -0.000000   0.000000  -0.000000
    31  H    0.392502   0.000002  -0.000024
    32  H    0.000002   0.395288  -0.000002
    33  H   -0.000024  -0.000002   0.319777
 Mulliken charges:
               1
     1  Zr   1.615424
     2  O   -0.772737
     3  O   -0.762951
     4  O   -0.772868
     5  O   -0.747139
     6  Zr   1.472782
     7  Zr   1.517545
     8  Zr   1.459889
     9  Zr   1.449840
    10  O   -0.746268
    11  O   -0.695770
    12  O   -0.692512
    13  O   -0.742176
    14  O   -0.713447
    15  O   -0.699178
    16  O   -0.697546
    17  O   -0.717517
    18  O   -0.750057
    19  O   -0.702753
    20  O   -0.699102
    21  O   -0.719483
    22  H    0.335902
    23  H    0.332188
    24  H    0.329944
    25  H    0.376255
    26  H    0.335378
    27  H    0.338016
    28  H    0.376377
    29  H    0.332655
    30  H    0.335193
    31  H    0.328095
    32  H    0.326517
    33  H    0.369504
 Sum of Mulliken charges =  -0.00000
 Mulliken charges with hydrogens summed into heavy atoms:
               1
     1  Zr   1.615424
     2  O   -0.772737
     3  O   -0.762951
     4  O   -0.772868
     5  O   -0.747139
     6  Zr   1.472782
     7  Zr   1.517545
     8  Zr   1.459889
     9  Zr   1.449840
    10  O   -0.408252
    11  O   -0.363582
    12  O   -0.356610
    13  O   -0.406798
    14  O   -0.337192
    15  O   -0.369234
    16  O   -0.364891
    17  O   -0.341139
    18  O   -0.414864
    19  O   -0.376236
    20  O   -0.371008
    21  O   -0.349979
 Electronic spatial extent (au):  <R**2>=          10710.4989
 Charge=              0.0000 electrons
 Dipole moment (field-independent basis, Debye):
    X=             -1.9480    Y=              1.0451    Z=              1.6358  Tot=              2.7501
 Quadrupole moment (field-independent basis, Debye-Ang):
   XX=           -191.3341   YY=           -194.7833   ZZ=           -182.9467
   XY=             -0.2655   XZ=              0.4324   YZ=              5.8445
 Traceless Quadrupole moment (field-independent basis, Debye-Ang):
   XX=             -1.6460   YY=             -5.0953   ZZ=              6.7413
   XY=             -0.2655   XZ=              0.4324   YZ=              5.8445
 Octapole moment (field-independent basis, Debye-Ang**2):
  XXX=            -45.4542  YYY=              7.5788  ZZZ=              2.0081  XYY=             30.4876
  XXY=             55.1016  XXZ=             31.1341  XZZ=             -9.6482  YZZ=            -32.4369
  YYZ=             64.0516  XYZ=              2.1665
 Hexadecapole moment (field-independent basis, Debye-Ang**3):
 XXXX=          -7565.0939 YYYY=          -4762.8908 ZZZZ=          -2685.6680 XXXY=             12.7193
 XXXZ=            221.9262 YYYX=           -334.0971 YYYZ=             82.5590 ZZZX=           -156.9861
 ZZZY=            155.7229 XXYY=          -2030.9397 XXZZ=          -1485.0350 YYZZ=          -1469.1825
 XXYZ=           -121.6377 YYXZ=            -83.0714 ZZXY=             14.5224
 N-N= 2.412845735106D+03 E-N=-8.157635729540D+03  KE= 1.277734947660D+03
   1 Symmetry operations used in ECPInt.
 ECPInt:  NShTT=    9870 NPrTT=   52070 LenC2=    8289 LenP2D=   28374.
 LDataN:  DoStor=T MaxTD1= 6 Len=  172
 Calling FoFJK, ICntrl=      2127 FMM=F ISym2X=0 I1Cent= 0 IOpClX= 0 NMat=1 NMatS=1 NMatT=0.
 Defaulting to unpruned grid for atomic number  40.
 Defaulting to unpruned grid for atomic number  40.
 Defaulting to unpruned grid for atomic number  40.
 Defaulting to unpruned grid for atomic number  40.
 Defaulting to unpruned grid for atomic number  40.
 Defaulting to unpruned grid for atomic number  40.
 Defaulting to unpruned grid for atomic number  40.
 Defaulting to unpruned grid for atomic number  40.
 Defaulting to unpruned grid for atomic number  40.
 Defaulting to unpruned grid for atomic number  40.
 Defaulting to unpruned grid for atomic number  40.
 Defaulting to unpruned grid for atomic number  40.
 Defaulting to unpruned grid for atomic number  40.
 Defaulting to unpruned grid for atomic number  40.
 Defaulting to unpruned grid for atomic number  40.
 Defaulting to unpruned grid for atomic number  40.
 ***** Axes restored to original set *****
 -------------------------------------------------------------------
 Center     Atomic                   Forces (Hartrees/Bohr)
 Number     Number              X              Y              Z
 -------------------------------------------------------------------
      1       40          -0.012474046    0.005677389    0.001175667
      2        8          -0.103460324   -0.249891277   -0.240241013
      3        8           0.140918532   -0.177470308    0.287365723
      4        8          -0.294054550    0.185778626    0.103542153
      5        8           0.270862106    0.238353768   -0.152780616
      6       40           0.004803218    0.006089895   -0.003456679
      7       40          -0.007174274    0.002263911    0.002076873
      8       40          -0.000706638   -0.006492523   -0.004840295
      9       40           0.003700249   -0.003163928    0.006132716
     10        8           0.000058732   -0.001535134   -0.000430593
     11        8           0.000533073    0.001091579   -0.001943160
     12        8           0.001020882    0.000484046    0.002315291
[...]
 Alpha virt. eigenvalues --    2.66216   2.67146   2.67461   2.71029   2.71344
 Alpha virt. eigenvalues --    2.71417   2.72113   3.40383   3.41128   3.41831
 Alpha virt. eigenvalues --    3.42161   3.42925   3.43958   3.44998   3.45246
 Alpha virt. eigenvalues --    3.45678   3.53258   3.54642   3.55729   4.05915
 Alpha virt. eigenvalues --    5.58345   5.86675   6.38867   7.61385
          Condensed to atoms (all electrons):
               1          2          3          4          5          6
     1  Zr   9.737150   0.182490   0.184902   0.167571   0.179942  -0.019209
     2  O    0.182490   8.495790   0.000173   0.000378   0.001214  -0.005737
     3  O    0.184902   0.000173   8.492689   0.000808   0.000970  -0.004378
     4  O    0.167571   0.000378   0.000808   8.503707   0.001062   0.002061
     5  O    0.179942   0.001214   0.000970   0.001062   8.496974   0.153767
     6  Zr  -0.019209  -0.005737  -0.004378   0.002061   0.153767   9.730126
     7  Zr  -0.022234  -0.003978  -0.003013   0.172273   0.001177  -0.000918
     8  Zr  -0.018523   0.167425  -0.005719  -0.006358   0.002407  -0.001895
     9  Zr  -0.017582  -0.002904   0.168479   0.000194  -0.004638  -0.000306
    10  O    0.000098   0.000003   0.000000   0.000851  -0.000000   0.000067
    11  O    0.005045   0.000000  -0.000000   0.001130  -0.000000   0.000083
    12  O    0.001382  -0.000000   0.000000   0.001385  -0.000000   0.000032
    13  O   -0.004481   0.000000   0.000655  -0.000000   0.000003   0.000451
    14  O   -0.009608  -0.000062   0.001247  -0.000000  -0.000000   0.000123
    15  O    0.000296  -0.000000   0.001009   0.000000  -0.000000  -0.000084
    16  O    0.000213   0.001138  -0.000000  -0.000000  -0.000000  -0.000016
    17  O   -0.006643   0.000843   0.000000  -0.000057  -0.000000  -0.000042
    18  O   -0.005269   0.000764   0.000005   0.000000  -0.000000   0.000155
    19  O    0.005778  -0.000000   0.000000   0.000000   0.000554   0.204542
    20  O    0.002471   0.000000  -0.000000   0.000000   0.000863   0.213522
    21  O    0.004384  -0.000000  -0.000243  -0.000000   0.000331   0.218892
    22  H   -0.000209  -0.000000   0.000000  -0.000272   0.000000  -0.000003
    23  H    0.001362   0.000000  -0.000000  -0.000269   0.000000   0.000007
    24  H   -0.000026  -0.000000  -0.000172   0.000000   0.000000  -0.000060
    25  H   -0.001888  -0.000307  -0.000276   0.000000  -0.000000   0.000038
    26  H    0.001729   0.000000   0.000036  -0.000000   0.000000   0.000172
    27  H    0.001137   0.000000   0.000000   0.000028  -0.000000   0.000004
    28  H   -0.001198  -0.000264   0.000001  -0.000271  -0.000000   0.000012
    29  H    0.000296  -0.000033   0.000000   0.000000  -0.000000  -0.000005
    30  H    0.000319   0.000031  -0.000000   0.000000   0.000000  -0.000009
    31  H    0.000222  -0.000000  -0.000000   0.000000  -0.000037  -0.016618
    32  H   -0.000276   0.000000   0.000000  -0.000000  -0.000039  -0.014355
    33  H   -0.002861   0.000003  -0.000444  -0.000000  -0.000105  -0.010727
               7          8          9         10         11         12
     1  Zr  -0.022234  -0.018523  -0.017582   0.000098   0.005045   0.001382
     2  O   -0.003978   0.167425  -0.002904   0.000003   0.000000  -0.000000
     3  O   -0.003013  -0.005719   0.168479   0.000000  -0.000000   0.000000
     4  O    0.172273  -0.006358   0.000194   0.000851   0.001130   0.001385
     5  O    0.001177   0.002407  -0.004638  -0.000000  -0.000000  -0.000000
     6  Zr  -0.000918  -0.001895  -0.000306   0.000067   0.000083   0.000032
     7  Zr   9.720268   0.000516  -0.000215   0.171955   0.207709   0.214451
     8  Zr   0.000516   9.730316  -0.001936   0.002011  -0.000555   0.000017
     9  Zr  -0.000215  -0.001936   9.730839  -0.000110   0.000016   0.000002
    10  O    0.171955   0.002011  -0.000110   8.240295   0.000096   0.000653
    11  O    0.207709  -0.000555   0.000016   0.000096   8.184082   0.000864
    12  O    0.214451   0.000017   0.000002   0.000653   0.000864   8.178800
    13  O    0.000021  -0.000291   0.180665   0.000000  -0.000000   0.000000
    14  O    0.000220   0.009967   0.234741   0.000000   0.000000  -0.000000
    15  O   -0.000027  -0.000010   0.212297  -0.000000   0.000000   0.000000
    16  O   -0.000194   0.216511  -0.000016   0.000000  -0.000000   0.000000
    17  O    0.010693   0.230158   0.000118  -0.022008   0.000001  -0.000000
    18  O   -0.000063   0.171927   0.004222   0.000000  -0.000000   0.000000
    19  O    0.000064   0.000031  -0.000943   0.000000  -0.000000   0.000000
    20  O    0.000060  -0.000086  -0.000183  -0.000000   0.000000  -0.000000
    21  O    0.000062   0.000195   0.008086   0.000000   0.000000   0.000000
    22  H   -0.014445  -0.000002  -0.000012  -0.000083   0.000001   0.298702
    23  H   -0.017434  -0.000129   0.000007  -0.000203   0.299376   0.000019
    24  H   -0.000011   0.000035  -0.015632   0.000000  -0.000000   0.000000
    25  H   -0.000041   0.002832  -0.011262  -0.000000  -0.000000   0.000000
    26  H    0.000010  -0.000042  -0.017830  -0.000000  -0.000000   0.000000
    27  H   -0.016031   0.000025   0.000020   0.295857  -0.000183  -0.000746
    28  H    0.000846  -0.010255  -0.000089   0.056652  -0.000116   0.000009
    29  H   -0.000137  -0.015806   0.000031  -0.000000  -0.000000   0.000000
    30  H    0.000045  -0.013318  -0.000010   0.000000   0.000000  -0.000000
    31  H   -0.000004   0.000025  -0.000050  -0.000000  -0.000000  -0.000000
    32  H    0.000003  -0.000003   0.000045  -0.000000  -0.000000  -0.000000
    33  H   -0.000005  -0.000033   0.004228  -0.000000  -0.000000   0.000000
              13         14         15         16         17         18
     1  Zr  -0.004481  -0.009608   0.000296   0.000213  -0.006643  -0.005269
     2  O    0.000000  -0.000062  -0.000000   0.001138   0.000843   0.000764
     3  O    0.000655   0.001247   0.001009  -0.000000   0.000000   0.000005
     4  O   -0.000000  -0.000000   0.000000  -0.000000  -0.000057   0.000000
     5  O    0.000003  -0.000000  -0.000000  -0.000000  -0.000000  -0.000000
     6  Zr   0.000451   0.000123  -0.000084  -0.000016  -0.000042   0.000155
     7  Zr   0.000021   0.000220  -0.000027  -0.000194   0.010693  -0.000063
     8  Zr  -0.000291   0.009967  -0.000010   0.216511   0.230158   0.171927
     9  Zr   0.180665   0.234741   0.212297  -0.000016   0.000118   0.004222
    10  O    0.000000   0.000000  -0.000000   0.000000  -0.022008   0.000000
    11  O   -0.000000   0.000000   0.000000  -0.000000   0.000001  -0.000000
    12  O    0.000000  -0.000000   0.000000   0.000000  -0.000000   0.000000
    13  O    8.235914   0.000639   0.000459  -0.000000  -0.000000   0.000000
    14  O    0.000639   8.224002   0.001155  -0.000000   0.000001  -0.021153
    15  O    0.000459   0.001155   8.191501   0.000000  -0.000000   0.000000
    16  O   -0.000000  -0.000000   0.000000   8.183714   0.000984   0.000531
    17  O   -0.000000   0.000001  -0.000000   0.000984   8.228671   0.000419
    18  O    0.000000  -0.021153   0.000000   0.000531   0.000419   8.247882
    19  O    0.000000   0.000000  -0.000000   0.000000  -0.000000   0.000000
    20  O    0.000000   0.000000   0.000000  -0.000000   0.000000  -0.000000
    21  O   -0.019590   0.000000   0.000000  -0.000000   0.000000  -0.000000
    22  H   -0.000000  -0.000000   0.000000  -0.000000  -0.000000  -0.000000
    23  H   -0.000000  -0.000000   0.000000   0.000000  -0.000000  -0.000000
    24  H   -0.000285   0.000018   0.295382  -0.000000  -0.000000   0.000000
    25  H   -0.000206   0.272804   0.000036   0.000004  -0.000058   0.056417
    26  H    0.295031  -0.000937  -0.000153   0.000000  -0.000000  -0.000000
    27  H    0.000000  -0.000000   0.000000  -0.000000   0.000609  -0.000000
    28  H   -0.000000   0.000000   0.000000   0.000007   0.274397  -0.000074
    29  H   -0.000000  -0.000000  -0.000000   0.296411  -0.000567  -0.000019
    30  H    0.000000   0.000623  -0.000000  -0.000485  -0.000177   0.294481
    31  H   -0.000000   0.000000   0.000000   0.000000  -0.000000   0.000000
    32  H   -0.000000   0.000000  -0.000000   0.000000  -0.000000  -0.000000
    33  H    0.053618  -0.000002  -0.000002   0.000000   0.000000   0.000000
              19         20         21         22         23         24
     1  Zr   0.005778   0.002471   0.004384  -0.000209   0.001362  -0.000026
     2  O   -0.000000   0.000000  -0.000000  -0.000000   0.000000  -0.000000
     3  O    0.000000  -0.000000  -0.000243   0.000000  -0.000000  -0.000172
     4  O    0.000000   0.000000  -0.000000  -0.000272  -0.000269   0.000000
     5  O    0.000554   0.000863   0.000331   0.000000   0.000000   0.000000
     6  Zr   0.204542   0.213522   0.218892  -0.000003   0.000007  -0.000060
     7  Zr   0.000064   0.000060   0.000062  -0.014445  -0.017434  -0.000011
     8  Zr   0.000031  -0.000086   0.000195  -0.000002  -0.000129   0.000035
     9  Zr  -0.000943  -0.000183   0.008086  -0.000012   0.000007  -0.015632
    10  O    0.000000  -0.000000   0.000000  -0.000083  -0.000203   0.000000
    11  O   -0.000000   0.000000   0.000000   0.000001   0.299376  -0.000000
    12  O    0.000000  -0.000000   0.000000   0.298702   0.000019   0.000000
    13  O    0.000000   0.000000  -0.019590  -0.000000  -0.000000  -0.000285
    14  O    0.000000   0.000000   0.000000  -0.000000  -0.000000   0.000018
    15  O   -0.000000   0.000000   0.000000   0.000000   0.000000   0.295382
    16  O    0.000000  -0.000000  -0.000000  -0.000000   0.000000  -0.000000
    17  O   -0.000000   0.000000   0.000000  -0.000000  -0.000000  -0.000000
    18  O    0.000000  -0.000000  -0.000000  -0.000000  -0.000000   0.000000
    19  O    8.199427   0.000720   0.000816   0.000000  -0.000000   0.000000
    20  O    0.000720   8.187392   0.000961  -0.000000   0.000000   0.000000
    21  O    0.000816   0.000961   8.230706  -0.000000   0.000000   0.000000
    22  H    0.000000  -0.000000  -0.000000   0.380782  -0.000001  -0.000000
    23  H   -0.000000   0.000000   0.000000  -0.000001   0.385292   0.000000
    24  H    0.000000   0.000000   0.000000  -0.000000   0.000000   0.391504
    25  H    0.000000   0.000000   0.000000  -0.000000  -0.000000  -0.000002
    26  H   -0.000000  -0.000000   0.000627  -0.000000   0.000000   0.000001
    27  H   -0.000000  -0.000000   0.000000   0.000001   0.000001  -0.000000
    28  H   -0.000000   0.000000   0.000000   0.000000  -0.000010  -0.000000
    29  H   -0.000000   0.000000  -0.000000  -0.000000   0.000000   0.000000
    30  H    0.000000  -0.000000  -0.000000   0.000000   0.000000   0.000000
    31  H   -0.000032   0.295836  -0.000552  -0.000000  -0.000000   0.000000
    32  H    0.295538  -0.000435  -0.000021  -0.000000  -0.000000  -0.000000
    33  H   -0.000027  -0.000020   0.277877   0.000000  -0.000000  -0.000002
              25         26         27         28         29         30
     1  Zr  -0.001888   0.001729   0.001137  -0.001198   0.000296   0.000319
     2  O   -0.000307   0.000000   0.000000  -0.000264  -0.000033   0.000031
     3  O   -0.000276   0.000036   0.000000   0.000001   0.000000  -0.000000
     4  O    0.000000  -0.000000   0.000028  -0.000271   0.000000   0.000000
     5  O   -0.000000   0.000000  -0.000000  -0.000000  -0.000000   0.000000
     6  Zr   0.000038   0.000172   0.000004   0.000012  -0.000005  -0.000009
     7  Zr  -0.000041   0.000010  -0.016031   0.000846  -0.000137   0.000045
     8  Zr   0.002832  -0.000042   0.000025  -0.010255  -0.015806  -0.013318
     9  Zr  -0.011262  -0.017830   0.000020  -0.000089   0.000031  -0.000010
    10  O   -0.000000  -0.000000   0.295857   0.056652  -0.000000   0.000000
    11  O   -0.000000  -0.000000  -0.000183  -0.000116  -0.000000   0.000000
    12  O    0.000000   0.000000  -0.000746   0.000009   0.000000  -0.000000
    13  O   -0.000206   0.295031   0.000000  -0.000000  -0.000000   0.000000
    14  O    0.272804  -0.000937  -0.000000   0.000000  -0.000000   0.000623
    15  O    0.000036  -0.000153   0.000000   0.000000  -0.000000  -0.000000
    16  O    0.000004   0.000000  -0.000000   0.000007   0.296411  -0.000485
    17  O   -0.000058  -0.000000   0.000609   0.274397  -0.000567  -0.000177
    18  O    0.056417  -0.000000  -0.000000  -0.000074  -0.000019   0.294481
    19  O    0.000000  -0.000000  -0.000000  -0.000000  -0.000000   0.000000
    20  O    0.000000  -0.000000  -0.000000   0.000000   0.000000  -0.000000
    21  O    0.000000   0.000627   0.000000   0.000000  -0.000000  -0.000000
    22  H   -0.000000  -0.000000   0.000001   0.000000  -0.000000   0.000000
    23  H   -0.000000   0.000000   0.000001  -0.000010   0.000000   0.000000
    24  H   -0.000002   0.000001  -0.000000  -0.000000   0.000000   0.000000
    25  H    0.307724  -0.000021  -0.000000  -0.000002  -0.000000  -0.002078
    26  H   -0.000021   0.388054  -0.000000  -0.000000  -0.000000  -0.000000
    27  H   -0.000000  -0.000000   0.383119  -0.001901   0.000000  -0.000000
    28  H   -0.000002  -0.000000  -0.001901   0.306536  -0.000012  -0.000001
    29  H   -0.000000  -0.000000   0.000000  -0.000012   0.387269  -0.000001
    30  H   -0.002078  -0.000000  -0.000000  -0.000001  -0.000001   0.385776
    31  H    0.000000  -0.000000  -0.000000   0.000000   0.000000  -0.000000
    32  H   -0.000000   0.000000   0.000000   0.000000  -0.000000   0.000000
    33  H    0.000000  -0.002063   0.000000  -0.000000  -0.000000  -0.000000
              31         32         33
     1  Zr   0.000222  -0.000276  -0.002861
     2  O   -0.000000   0.000000   0.000003
     3  O   -0.000000   0.000000  -0.000444
     4  O    0.000000  -0.000000  -0.000000
     5  O   -0.000037  -0.000039  -0.000105
     6  Zr  -0.016618  -0.014355  -0.010727
     7  Zr  -0.000004   0.000003  -0.000005
     8  Zr   0.000025  -0.000003  -0.000033
     9  Zr  -0.000050   0.000045   0.004228
    10  O   -0.000000  -0.000000  -0.000000
    11  O   -0.000000  -0.000000  -0.000000
    12  O   -0.000000  -0.000000   0.000000
    13  O   -0.000000  -0.000000   0.053618
    14  O    0.000000   0.000000  -0.000002
    15  O    0.000000  -0.000000  -0.000002
    16  O    0.000000   0.000000   0.000000
    17  O   -0.000000  -0.000000   0.000000
    18  O    0.000000  -0.000000   0.000000
    19  O   -0.000032   0.295538  -0.000027
    20  O    0.295836  -0.000435  -0.000020
    21  O   -0.000552  -0.000021   0.277877
    22  H   -0.000000  -0.000000   0.000000
    23  H   -0.000000  -0.000000  -0.000000
    24  H    0.000000  -0.000000  -0.000002
    25  H    0.000000  -0.000000   0.000000
    26  H   -0.000000   0.000000  -0.002063
    27  H   -0.000000   0.000000   0.000000
    28  H    0.000000   0.000000  -0.000000
    29  H    0.000000  -0.000000  -0.000000
    30  H   -0.000000   0.000000  -0.000000
    31  H    0.392533  -0.000000  -0.000015
    32  H   -0.000000   0.393216  -0.000001
    33  H   -0.000015  -0.000001   0.311088
 Mulliken charges:
               1
     1  Zr   1.633220
     2  O   -0.836965
     3  O   -0.836728
     4  O   -0.844222
     5  O   -0.834443
     6  Zr   1.550309
     7  Zr   1.578378
     8  Zr   1.540563
     9  Zr   1.529726
    10  O   -0.746135
    11  O   -0.697547
    12  O   -0.695568
    13  O   -0.742605
    14  O   -0.713778
    15  O   -0.701860
    16  O   -0.698804
    17  O   -0.717340
    18  O   -0.750223
    19  O   -0.706469
    20  O   -0.701102
    21  O   -0.722533
    22  H    0.335542
    23  H    0.331983
    24  H    0.329249
    25  H    0.376285
    26  H    0.335383
    27  H    0.338061
    28  H    0.375731
    29  H    0.332574
    30  H    0.334803
    31  H    0.328693
    32  H    0.326327
    33  H    0.369494
 Sum of Mulliken charges =  -0.00000
 Mulliken charges with hydrogens summed into heavy atoms:
               1
     1  Zr   1.633220
     2  O   -0.836965
     3  O   -0.836728
     4  O   -0.844222
     5  O   -0.834443
     6  Zr   1.550309
     7  Zr   1.578378
     8  Zr   1.540563
     9  Zr   1.529726
    10  O   -0.408074
    11  O   -0.365564
    12  O   -0.360026
    13  O   -0.407222
    14  O   -0.337493
    15  O   -0.372611
    16  O   -0.366229
    17  O   -0.341609
    18  O   -0.415420
    19  O   -0.380142
    20  O   -0.372409
    21  O   -0.353039
 Electronic spatial extent (au):  <R**2>=          11987.6826
 Charge=             -0.0000 electrons
 Dipole moment (field-independent basis, Debye):
    X=             -1.5005    Y=              0.7248    Z=              0.7544  Tot=              1.8292
 Quadrupole moment (field-independent basis, Debye-Ang):
   XX=           -187.8797   YY=           -197.5476   ZZ=           -184.7576
   XY=             -2.4540   XZ=             -2.6011   YZ=              8.8532
 Traceless Quadrupole moment (field-independent basis, Debye-Ang):
   XX=              2.1820   YY=             -7.4860   ZZ=              5.3040
   XY=             -2.4540   XZ=             -2.6011   YZ=              8.8532
 Octapole moment (field-independent basis, Debye-Ang**2):
  XXX=              7.9400  YYY=             15.0169  ZZZ=            -13.7506  XYY=             38.2612
  XXY=             36.6620  XXZ=             34.8325  XZZ=            -21.9681  YZZ=            -30.0144
  YYZ=             43.1415  XYZ=              1.0290
 Hexadecapole moment (field-independent basis, Debye-Ang**3):
 XXXX=          -8833.7895 YYYY=          -5247.0004 ZZZZ=          -2779.4903 XXXY=           -223.6649
 XXXZ=            117.7268 YYYX=           -316.3663 YYYZ=            236.8304 ZZZX=           -143.7147
 ZZZY=            139.6276 XXYY=          -2284.1709 XXZZ=          -1682.2004 YYZZ=          -1524.1471
 XXYZ=           -106.7205 YYXZ=           -124.2868 ZZXY=             41.0000
 N-N= 2.297459129851D+03 E-N=-7.923459026790D+03  KE= 1.274011244791D+03
 1\1\GINC-GRA1257\FOpt\RB3LYP\Gen\H12O16Zr5\SARASHS\22-Jun-2020\0\\#n B
 3LYP/GEN PSEUDO=READ Opt\\Title\\0,1\Zr,0.1093357671,0.7342609159,-0.1
 272468329\O,-0.5667273011,-0.5833533186,-1.444217072\O,0.8647556693,-0
 .352788824,1.3416792965\O,-1.4599788041,1.7970074416,0.5185373596\O,1.
 5489643828,1.8223528726,-0.8769076545\Zr,3.5427331549,1.895389351,-1.0
 554015462\Zr,-3.3120980934,2.2055191356,0.9797730267\Zr,-1.911484774,-
 1.9828207785,-1.8046677699\Zr,1.6592438698,-2.0993597234,1.8188962742\
 O,-4.2816199943,0.4360269416,0.9274991555\O,-4.1083456941,3.4199584147
 ,-0.3366841944\O,-3.5087888132,3.0007048146,2.7579317815\O,3.448985546
 5,-2.1103732528,0.8861284409\O,0.5595164249,-3.5303572038,1.1232404132
 \O,1.8645599124,-2.3344417686,3.7641440711\O,-2.2408546752,-2.24959179
 55,-3.7250491553\O,-3.5292490023,-1.4054555077,-0.925074136\O,-1.21318
 26502,-3.6803269409,-0.9571024613\O,4.2266914888,3.3301342286,0.112682
 5112\O,4.040511788,2.2243188001,-2.9318977043\O,4.1810432017,0.1678004
 188,-0.468890639\H,-3.0138877632,3.2013440142,3.556992808\H,-4.1754671
 838,3.5737501027,-1.2825502185\H,2.3723665521,-1.9416688802,4.47968008
 79\H,-0.088633263,-3.6532330258,0.3897336988\H,3.8992498949,-2.8575925
 445,0.4757099911\H,-4.9954097741,0.1254583367,1.4961558845\H,-3.889977
 5915,-0.7818041123,-0.2523879\H,-2.944663143,-2.1106242576,-4.36498505
 48\H,-1.4227736679,-4.598784395,-1.1599841888\H,4.4524769723,1.7377250
 966,-3.651426391\H,4.7100588944,4.1562085417,0.0280577128\H,4.02011866
 83,-0.6528630977,0.0457804055\\Version=ES64L-G16RevB.01\State=1-A\HF=-
 1444.9577201\RMSD=7.155e-09\RMSF=3.623e-06\Dipole=-0.6033803,-0.275391
 3,-0.2792766\Quadrupole=1.7999051,-5.514444,3.7145389,1.854387,2.10720
 3,6.5856269\PG=C01 [X(H12O16Zr5)]\\@


 HE WHO LAUGHS LAST PROBABLY DIDN'T GET THE JOKE.
 Job cpu time:       0 days  9 hours 20 minutes 18.4 seconds.
 Elapsed time:       0 days  0 hours 35 minutes 13.1 seconds.
 File lengths (MBytes):  RWF=     98 Int=      0 D2E=      0 Chk=     13 Scr=      1
 Normal termination of Gaussian 16 at Mon Jun 22 02:48:48 2020.
