 Entering Gaussian System, Link 0=g16
 Initial command:
 /opt/software/gaussian/g16.b01/l1.exe "/localscratch/sarashs.33272397.0/Gau-28603.inp" -scrdir="/localscratch/sarashs.33272397.0/"
 Entering Link 1 = /opt/software/gaussian/g16.b01/l1.exe PID=     28604.
  
 Copyright (c) 1988-2017, Gaussian, Inc.  All Rights Reserved.
  
 This is part of the Gaussian(R) 16 program.  It is based on
 the Gaussian(R) 09 system (copyright 2009, Gaussian, Inc.),
 the Gaussian(R) 03 system (copyright 2003, Gaussian, Inc.),
 the Gaussian(R) 98 system (copyright 1998, Gaussian, Inc.),
 the Gaussian(R) 94 system (copyright 1995, Gaussian, Inc.),
 the Gaussian 92(TM) system (copyright 1992, Gaussian, Inc.),
 the Gaussian 90(TM) system (copyright 1990, Gaussian, Inc.),
 the Gaussian 88(TM) system (copyright 1988, Gaussian, Inc.),
 the Gaussian 86(TM) system (copyright 1986, Carnegie Mellon
 University), and the Gaussian 82(TM) system (copyright 1983,
 Carnegie Mellon University). Gaussian is a federally registered
 trademark of Gaussian, Inc.
  
 This software contains proprietary and confidential information,
 including trade secrets, belonging to Gaussian, Inc.
  
 This software is provided under written license and may be
 used, copied, transmitted, or stored only in accord with that
 written license.
  
 The following legend is applicable only to US Government
 contracts under FAR:
  
                    RESTRICTED RIGHTS LEGEND
  
 Use, reproduction and disclosure by the US Government is
 subject to restrictions as set forth in subparagraphs (a)
 and (c) of the Commercial Computer Software - Restricted
 Rights clause in FAR 52.227-19.
  
 Gaussian, Inc.
 340 Quinnipiac St., Bldg. 40, Wallingford CT 06492
  
  
 ---------------------------------------------------------------
 Warning -- This program may not be used in any manner that
 competes with the business of Gaussian, Inc. or will provide
 assistance to any competitor of Gaussian, Inc.  The licensee
 of this program is prohibited from giving any competitor of
 Gaussian, Inc. access to this program.  By using this program,
 the user acknowledges that Gaussian, Inc. is engaged in the
 business of creating and licensing software in the field of
 computational chemistry and represents and warrants to the
 licensee that it is not a competitor of Gaussian, Inc. and that
 it will not use this program in any manner prohibited above.
 ---------------------------------------------------------------
  

 Cite this work as:
 Gaussian 16, Revision B.01,
 M. J. Frisch, G. W. Trucks, H. B. Schlegel, G. E. Scuseria, 
 M. A. Robb, J. R. Cheeseman, G. Scalmani, V. Barone, 
 G. A. Petersson, H. Nakatsuji, X. Li, M. Caricato, A. V. Marenich, 
 J. Bloino, B. G. Janesko, R. Gomperts, B. Mennucci, H. P. Hratchian, 
 J. V. Ortiz, A. F. Izmaylov, J. L. Sonnenberg, D. Williams-Young, 
 F. Ding, F. Lipparini, F. Egidi, J. Goings, B. Peng, A. Petrone, 
 T. Henderson, D. Ranasinghe, V. G. Zakrzewski, J. Gao, N. Rega, 
 G. Zheng, W. Liang, M. Hada, M. Ehara, K. Toyota, R. Fukuda, 
 J. Hasegawa, M. Ishida, T. Nakajima, Y. Honda, O. Kitao, H. Nakai, 
 T. Vreven, K. Throssell, J. A. Montgomery, Jr., J. E. Peralta, 
 F. Ogliaro, M. J. Bearpark, J. J. Heyd, E. N. Brothers, K. N. Kudin, 
 V. N. Staroverov, T. A. Keith, R. Kobayashi, J. Normand, 
 K. Raghavachari, A. P. Rendell, J. C. Burant, S. S. Iyengar, 
 J. Tomasi, M. Cossi, J. M. Millam, M. Klene, C. Adamo, R. Cammi, 
 J. W. Ochterski, R. L. Martin, K. Morokuma, O. Farkas, 
 J. B. Foresman, and D. J. Fox, Gaussian, Inc., Wallingford CT, 2016.
 
 ******************************************
 Gaussian 16:  ES64L-G16RevB.01 20-Dec-2017
                20-Jun-2020 
 ******************************************
 %NProcShared=16
 Will use up to   16 processors via shared memory.
 ----------------------------
 #n B3LYP/GEN PSEUDO=READ Opt
 ----------------------------
 1/18=20,19=15,26=3,38=1/1,3;
 2/9=110,12=2,17=6,18=5,40=1/2;
 3/5=7,11=2,16=1,17=8,25=1,30=1,71=1,74=-5/1,2,3;
 4//1;
 5/5=2,38=5/2;
 6/7=2,8=2,9=2,10=2,28=1/1;
 7//1,2,3,16;
 1/18=20,19=15,26=3/3(2);
 2/9=110/2;
 99//99;
 2/9=110/2;
 3/5=7,6=1,11=2,16=1,17=8,25=1,30=1,71=1,74=-5,82=7/1,2,3;
 4/5=5,16=3,69=1/1;
 5/5=2,38=5/2;
 7//1,2,3,16;
 1/18=20,19=15,26=3/3(-5);
 2/9=110/2;
 6/7=2,8=2,9=2,10=2,19=2,28=1/1;
 99/9=1/99;
 -----
 Title
 -----
 Symbolic Z-matrix:
 Charge =  0 Multiplicity = 1
 Si                   -2.11221  -0.05656  -0.03254 
 O                    -2.89817   0.8326   -1.17804 
 O                    -3.03091  -1.41411   0.19882 
 O                    -0.58425  -0.49588  -0.4163 
 Zr                    1.3154   -0.02337  -0.03637 
 H                    -3.35445   0.31094  -1.84676 
 H                    -2.53535  -2.17484   0.52132 
 O                    -1.96977   0.90611   1.30392 
 H                    -2.72599   1.47559   1.48213 
 O                     1.74911  -0.44038   1.82791 
 H                     1.81452   0.0108    2.6747 
 O                     1.61092   1.88091  -0.36463 
 H                     2.01403   2.50782  -0.97054 
 O                     2.44314  -1.10501  -1.21983 
 H                     3.18157  -1.71778  -1.16531 
 

 GradGradGradGradGradGradGradGradGradGradGradGradGradGradGradGradGradGrad
 Berny optimization.
 Initialization pass.
                           ----------------------------
                           !    Initial Parameters    !
                           ! (Angstroms and Degrees)  !
 --------------------------                            --------------------------
 ! Name  Definition              Value          Derivative Info.                !
 --------------------------------------------------------------------------------
 ! R1    R(1,2)                  1.6494         estimate D2E/DX2                !
 ! R2    R(1,3)                  1.6554         estimate D2E/DX2                !
 ! R3    R(1,4)                  1.6355         estimate D2E/DX2                !
 ! R4    R(1,8)                  1.6532         estimate D2E/DX2                !
 ! R5    R(2,6)                  0.9631         estimate D2E/DX2                !
 ! R6    R(3,7)                  0.9635         estimate D2E/DX2                !
 ! R7    R(4,5)                  1.9941         estimate D2E/DX2                !
 ! R8    R(5,10)                 1.959          estimate D2E/DX2                !
 ! R9    R(5,12)                 1.9548         estimate D2E/DX2                !
 ! R10   R(5,14)                 1.9602         estimate D2E/DX2                !
 ! R11   R(8,9)                  0.9633         estimate D2E/DX2                !
 ! R12   R(10,11)                0.9617         estimate D2E/DX2                !
 ! R13   R(12,13)                0.9605         estimate D2E/DX2                !
 ! R14   R(14,15)                0.9611         estimate D2E/DX2                !
 ! A1    A(2,1,3)              105.9434         estimate D2E/DX2                !
 ! A2    A(2,1,4)              115.2784         estimate D2E/DX2                !
 ! A3    A(2,1,8)              106.773          estimate D2E/DX2                !
 ! A4    A(3,1,4)              109.3278         estimate D2E/DX2                !
 ! A5    A(3,1,8)              114.3529         estimate D2E/DX2                !
 ! A6    A(4,1,8)              105.4031         estimate D2E/DX2                !
 ! A7    A(1,2,6)              114.5824         estimate D2E/DX2                !
 ! A8    A(1,3,7)              114.1314         estimate D2E/DX2                !
 ! A9    A(1,4,5)              141.4111         estimate D2E/DX2                !
 ! A10   A(4,5,10)             109.9861         estimate D2E/DX2                !
 ! A11   A(4,5,12)             110.0508         estimate D2E/DX2                !
 ! A12   A(4,5,14)             107.5957         estimate D2E/DX2                !
 ! A13   A(10,5,12)            109.4936         estimate D2E/DX2                !
 ! A14   A(10,5,14)            109.2522         estimate D2E/DX2                !
 ! A15   A(12,5,14)            110.4372         estimate D2E/DX2                !
 ! A16   A(1,8,9)              115.2242         estimate D2E/DX2                !
 ! A17   A(5,10,11)            138.8627         estimate D2E/DX2                !
 ! A18   A(5,12,13)            143.6248         estimate D2E/DX2                !
 ! A19   A(5,14,15)            139.4283         estimate D2E/DX2                !
 ! D1    D(3,1,2,6)            -34.064          estimate D2E/DX2                !
 ! D2    D(4,1,2,6)             86.9716         estimate D2E/DX2                !
 ! D3    D(8,1,2,6)           -156.341          estimate D2E/DX2                !
 ! D4    D(2,1,3,7)            154.3293         estimate D2E/DX2                !
 ! D5    D(4,1,3,7)             29.5217         estimate D2E/DX2                !
 ! D6    D(8,1,3,7)            -88.3646         estimate D2E/DX2                !
 ! D7    D(2,1,4,5)            102.7798         estimate D2E/DX2                !
 ! D8    D(3,1,4,5)           -138.0404         estimate D2E/DX2                !
 ! D9    D(8,1,4,5)            -14.6806         estimate D2E/DX2                !
 ! D10   D(2,1,8,9)             37.4891         estimate D2E/DX2                !
 ! D11   D(3,1,8,9)            -79.3405         estimate D2E/DX2                !
 ! D12   D(4,1,8,9)            160.558          estimate D2E/DX2                !
 ! D13   D(1,4,5,10)            67.2744         estimate D2E/DX2                !
 ! D14   D(1,4,5,12)           -53.4386         estimate D2E/DX2                !
 ! D15   D(1,4,5,14)          -173.8166         estimate D2E/DX2                !
 ! D16   D(4,5,10,11)          -98.0246         estimate D2E/DX2                !
 ! D17   D(12,5,10,11)          23.0233         estimate D2E/DX2                !
 ! D18   D(14,5,10,11)         144.0871         estimate D2E/DX2                !
 ! D19   D(4,5,12,13)         -106.4986         estimate D2E/DX2                !
 ! D20   D(10,5,12,13)         132.4926         estimate D2E/DX2                !
 ! D21   D(14,5,12,13)          12.1491         estimate D2E/DX2                !
 ! D22   D(4,5,14,15)         -125.7291         estimate D2E/DX2                !
 ! D23   D(10,5,14,15)          -6.3509         estimate D2E/DX2                !
 ! D24   D(12,5,14,15)         114.1372         estimate D2E/DX2                !
 --------------------------------------------------------------------------------
 Trust Radius=3.00D-01 FncErr=1.00D-07 GrdErr=1.00D-06 EigMax=2.50D+02 EigMin=1.00D-04
 Number of steps in this run=     67 maximum allowed number of steps=    100.
 GradGradGradGradGradGradGradGradGradGradGradGradGradGradGradGradGradGrad

                          Input orientation:                          
 ---------------------------------------------------------------------
 Center     Atomic      Atomic             Coordinates (Angstroms)
 Number     Number       Type             X           Y           Z
 ---------------------------------------------------------------------
      1         14           0       -2.112210   -0.056555   -0.032535
      2          8           0       -2.898167    0.832598   -1.178039
      3          8           0       -3.030909   -1.414109    0.198816
      4          8           0       -0.584249   -0.495881   -0.416301
      5         40           0        1.315401   -0.023368   -0.036373
      6          1           0       -3.354454    0.310943   -1.846761
      7          1           0       -2.535353   -2.174840    0.521321
      8          8           0       -1.969774    0.906114    1.303924
      9          1           0       -2.725985    1.475586    1.482132
     10          8           0        1.749109   -0.440377    1.827913
     11          1           0        1.814518    0.010796    2.674696
     12          8           0        1.610918    1.880908   -0.364629
     13          1           0        2.014028    2.507816   -0.970540
     14          8           0        2.443144   -1.105007   -1.219826
     15          1           0        3.181574   -1.717783   -1.165309
 ---------------------------------------------------------------------
                    Distance matrix (angstroms):
                    1          2          3          4          5
     1  Si   0.000000
     2  O    1.649394   0.000000
     3  O    1.655441   2.638379   0.000000
     4  O    1.635527   2.774764   2.684708   0.000000
     5  Zr   3.427774   4.448622   4.569451   1.994062   0.000000
     6  H    2.229269   0.963074   2.695342   3.220437   5.019643
     7  H    2.230008   3.473347   0.963482   2.739497   4.446140
     8  O    1.653222   2.650935   2.780415   2.616189   3.667793
     9  H    2.240177   2.742187   3.176510   3.475308   4.570068
    10  O    4.303298   5.679207   5.143023   3.237922   1.958969
    11  H    4.769993   6.142339   5.624811   3.945259   2.756842
    12  O    4.210194   4.700259   5.720242   3.235824   1.954827
    13  H    4.947898   5.194138   6.496174   4.010040   2.787049
    14  O    4.822879   5.682047   5.663333   3.190893   1.960181
    15  H    5.662774   6.593016   6.367731   4.029328   2.761909
                    6          7          8          9         10
     6  H    0.000000
     7  H    3.529569   0.000000
     8  O    3.492618   3.228719   0.000000
     9  H    3.582303   3.779565   0.963282   0.000000
    10  O    6.333567   4.803349   3.989698   4.880261   0.000000
    11  H    6.874004   5.323101   4.123285   4.917722   0.961705
    12  O    5.414464   5.867330   4.068863   4.731125   3.196045
    13  H    5.866397   6.696998   4.858942   5.435883   4.073495
    14  O    6.000842   5.381595   5.466971   6.378082   3.195642
    15  H    6.877483   5.978033   6.286361   7.218435   3.555714
                   11         12         13         14         15
    11  H    0.000000
    12  O    3.574391   0.000000
    13  H    4.422969   0.960541   0.000000
    14  O    4.099694   3.215533   3.646748   0.000000
    15  H    4.427467   4.007322   4.388255   0.961117   0.000000
 Stoichiometry    H6O7SiZr
 Framework group  C1[X(H6O7SiZr)]
 Deg. of freedom    39
 Full point group                 C1      NOp   1
 Largest Abelian subgroup         C1      NOp   1
 Largest concise Abelian subgroup C1      NOp   1
                         Standard orientation:                         
 ---------------------------------------------------------------------
 Center     Atomic      Atomic             Coordinates (Angstroms)
 Number     Number       Type             X           Y           Z
 ---------------------------------------------------------------------
      1         14           0       -2.112210   -0.056555   -0.032535
      2          8           0       -2.898167    0.832598   -1.178039
      3          8           0       -3.030909   -1.414109    0.198816
      4          8           0       -0.584249   -0.495881   -0.416301
      5         40           0        1.315401   -0.023368   -0.036373
      6          1           0       -3.354454    0.310943   -1.846761
      7          1           0       -2.535353   -2.174840    0.521321
      8          8           0       -1.969774    0.906114    1.303924
      9          1           0       -2.725985    1.475586    1.482132
     10          8           0        1.749109   -0.440377    1.827913
     11          1           0        1.814518    0.010796    2.674696
     12          8           0        1.610918    1.880908   -0.364629
     13          1           0        2.014028    2.507816   -0.970540
     14          8           0        2.443144   -1.105007   -1.219826
     15          1           0        3.181574   -1.717783   -1.165309
 ---------------------------------------------------------------------
 Rotational constants (GHZ):           1.6644634           0.5029349           0.4989112
 General basis read from cards:  (5D, 7F)
 ======================================================================================================
                                       Pseudopotential Parameters
 ======================================================================================================
  Center     Atomic      Valence      Angular      Power
  Number     Number     Electrons     Momentum     of R      Exponent        Coefficient   SO-Coeffient
 ======================================================================================================
    1         14
                                   No pseudopotential on this center.
    2          8
                                   No pseudopotential on this center.
    3          8
                                   No pseudopotential on this center.
    4          8
                                   No pseudopotential on this center.
    5         40           12
                                      F and up 
                                                     0      645.9321873       -0.04258430    0.00000000
                                                     1      134.7547401      -20.22224090    0.00000000
                                                     2       42.3074619     -101.86951720    0.00000000
                                                     2       12.0003227      -41.61957840    0.00000000
                                                     2        4.1260454       -4.69861600    0.00000000
                                      S - F
                                                     0      117.6251862        2.79105590    0.00000000
                                                     1       22.9646089       41.94894590    0.00000000
                                                     2        4.5225298       67.72718660    0.00000000
                                      P - F
                                                     0       47.1953145        4.99111440    0.00000000
                                                     1       48.0356033       20.71931720    0.00000000
                                                     2       19.4541456      195.58677580    0.00000000
                                                     2        4.0512875       48.28771760    0.00000000
                                      D - F
                                                     0       79.9073983        3.00492260    0.00000000
                                                     1       45.8263798       25.93779890    0.00000000
                                                     2       26.9903522      125.12449340    0.00000000
                                                     2        9.6835718       70.76340220    0.00000000
                                                     2        2.7995666       15.04928220    0.00000000
    6          1
                                   No pseudopotential on this center.
    7          1
                                   No pseudopotential on this center.
    8          8
                                   No pseudopotential on this center.
    9          1
                                   No pseudopotential on this center.
   10          8
                                   No pseudopotential on this center.
   11          1
                                   No pseudopotential on this center.
   12          8
                                   No pseudopotential on this center.
   13          1
                                   No pseudopotential on this center.
   14          8
                                   No pseudopotential on this center.
   15          1
                                   No pseudopotential on this center.
 ======================================================================================================
 There are   178 symmetry adapted cartesian basis functions of A   symmetry.
 There are   168 symmetry adapted basis functions of A   symmetry.
   168 basis functions,   339 primitive gaussians,   178 cartesian basis functions
    44 alpha electrons       44 beta electrons
       nuclear repulsion energy       638.1739588729 Hartrees.
 NAtoms=   15 NActive=   15 NUniq=   15 SFac= 1.00D+00 NAtFMM=   60 NAOKFM=F Big=F
 Integral buffers will be    131072 words long.
 Raffenetti 2 integral format.
 Two-electron integral symmetry is turned on.
 One-electron integrals computed using PRISM.
   1 Symmetry operations used in ECPInt.
 ECPInt:  NShTT=    1770 NPrTT=   10201 LenC2=    1642 LenP2D=    6528.
 LDataN:  DoStor=T MaxTD1= 5 Len=  102
 NBasis=   168 RedAO= T EigKep=  1.48D-02  NBF=   168
 NBsUse=   168 1.00D-06 EigRej= -1.00D+00 NBFU=   168
 Defaulting to unpruned grid for atomic number  40.
 ExpMin= 2.43D-02 ExpMax= 1.61D+04 ExpMxC= 2.43D+03 IAcc=3 IRadAn=         5 AccDes= 0.00D+00
 Harris functional with IExCor=  402 and IRadAn=       5 diagonalized for initial guess.
 HarFok:  IExCor=  402 AccDes= 0.00D+00 IRadAn=         5 IDoV= 1 UseB2=F ITyADJ=14
 ICtDFT=  3500011 ScaDFX=  1.000000  1.000000  1.000000  1.000000
 Defaulting to unpruned grid for atomic number  40.
 FoFCou: FMM=F IPFlag=           0 FMFlag=      100000 FMFlg1=           0
         NFxFlg=           0 DoJE=T BraDBF=F KetDBF=T FulRan=T
         wScrn=  0.000000 ICntrl=       500 IOpCl=  0 I1Cent=   200000004 NGrid=           0
         NMat0=    1 NMatS0=      1 NMatT0=    0 NMatD0=    1 NMtDS0=    0 NMtDT0=    0
 Petite list used in FoFCou.
 Requested convergence on RMS density matrix=1.00D-08 within 128 cycles.
 Requested convergence on MAX density matrix=1.00D-06.
 Requested convergence on             energy=1.00D-06.
 No special actions if energy rises.
 Defaulting to unpruned grid for atomic number  40.
 Defaulting to unpruned grid for atomic number  40.
 Defaulting to unpruned grid for atomic number  40.
 Defaulting to unpruned grid for atomic number  40.
 Defaulting to unpruned grid for atomic number  40.
 Defaulting to unpruned grid for atomic number  40.
 Defaulting to unpruned grid for atomic number  40.
 Defaulting to unpruned grid for atomic number  40.
 Defaulting to unpruned grid for atomic number  40.
 Defaulting to unpruned grid for atomic number  40.
 Defaulting to unpruned grid for atomic number  40.
 Defaulting to unpruned grid for atomic number  40.
 Defaulting to unpruned grid for atomic number  40.
 Defaulting to unpruned grid for atomic number  40.
 Defaulting to unpruned grid for atomic number  40.
 Defaulting to unpruned grid for atomic number  40.
 SCF Done:  E(RB3LYP) =  -866.687275276     A.U. after   14 cycles
            NFock= 14  Conv=0.55D-08     -V/T= 2.0445

 **********************************************************************

            Population analysis using the SCF Density.

 **********************************************************************

 Orbital symmetries:
       Occupied  (A) (A) (A) (A) (A) (A) (A) (A) (A) (A) (A) (A)
                 (A) (A) (A) (A) (A) (A) (A) (A) (A) (A) (A) (A)
                 (A) (A) (A) (A) (A) (A) (A) (A) (A) (A) (A) (A)
                 (A) (A) (A) (A) (A) (A) (A) (A)
       Virtual   (A) (A) (A) (A) (A) (A) (A) (A) (A) (A) (A) (A)
                 (A) (A) (A) (A) (A) (A) (A) (A) (A) (A) (A) (A)
                 (A) (A) (A) (A) (A) (A) (A) (A) (A) (A) (A) (A)
                 (A) (A) (A) (A) (A) (A) (A) (A) (A) (A) (A) (A)
                 (A) (A) (A) (A) (A) (A) (A) (A) (A) (A) (A) (A)
                 (A) (A) (A) (A) (A) (A) (A) (A) (A) (A) (A) (A)
                 (A) (A) (A) (A) (A) (A) (A) (A) (A) (A) (A) (A)
                 (A) (A) (A) (A) (A) (A) (A) (A) (A) (A) (A) (A)
                 (A) (A) (A) (A) (A) (A) (A) (A) (A) (A) (A) (A)
                 (A) (A) (A) (A) (A) (A) (A) (A) (A) (A) (A) (A)
                 (A) (A) (A) (A)
 The electronic state is 1-A.
 Alpha  occ. eigenvalues --  -66.18421 -19.13856 -19.13836 -19.13826 -19.13729
 Alpha  occ. eigenvalues --  -19.13720 -19.13671 -19.12383  -5.32695  -3.68644
 Alpha  occ. eigenvalues --   -3.68634  -3.68609  -2.06013  -1.26773  -1.26689
 Alpha  occ. eigenvalues --   -1.26312  -1.01653  -0.98509  -0.98258  -0.95786
 Alpha  occ. eigenvalues --   -0.94727  -0.94702  -0.92826  -0.56123  -0.50954
 Alpha  occ. eigenvalues --   -0.50478  -0.48397  -0.48113  -0.47953  -0.44062
 Alpha  occ. eigenvalues --   -0.38347  -0.36601  -0.36159  -0.34981  -0.34655
 Alpha  occ. eigenvalues --   -0.33333  -0.33257  -0.32948  -0.32038  -0.31416
 Alpha  occ. eigenvalues --   -0.31218  -0.30846  -0.29887  -0.29400
 Alpha virt. eigenvalues --   -0.01299  -0.00664  -0.00385   0.00985   0.01545
 Alpha virt. eigenvalues --    0.01810   0.02439   0.02703   0.02953   0.09046
 Alpha virt. eigenvalues --    0.09991   0.10226   0.15490   0.15642   0.16026
 Alpha virt. eigenvalues --    0.17464   0.18586   0.19798   0.20483   0.23291
 Alpha virt. eigenvalues --    0.23868   0.24256   0.24963   0.26102   0.26925
 Alpha virt. eigenvalues --    0.28018   0.29475   0.34445   0.38837   0.39186
 Alpha virt. eigenvalues --    0.42402   0.57799   0.64447   0.71338   0.79750
 Alpha virt. eigenvalues --    0.80921   0.82462   0.85704   0.86429   0.87187
 Alpha virt. eigenvalues --    0.91588   0.93133   0.94072   0.94753   0.96425
 Alpha virt. eigenvalues --    0.97321   0.98660   1.00205   1.00541   1.03786
 Alpha virt. eigenvalues --    1.05693   1.06966   1.08554   1.09148   1.10518
 Alpha virt. eigenvalues --    1.15544   1.17213   1.19186   1.20729   1.21313
 Alpha virt. eigenvalues --    1.22297   1.24794   1.28564   1.37085   1.46727
 Alpha virt. eigenvalues --    1.47258   1.48788   1.52239   1.53194   1.56184
 Alpha virt. eigenvalues --    1.58565   1.59240   1.59561   1.61821   1.62401
 Alpha virt. eigenvalues --    1.63614   1.64493   1.66681   1.67069   1.71402
 Alpha virt. eigenvalues --    1.73550   1.74172   1.78838   1.80111   1.80792
 Alpha virt. eigenvalues --    1.81336   1.82545   1.84300   1.86288   1.87980
 Alpha virt. eigenvalues --    1.91306   1.92030   2.03947   2.05880   2.15102
 Alpha virt. eigenvalues --    2.35292   2.35931   2.37546   2.37748   2.38050
 Alpha virt. eigenvalues --    2.39183   2.44517   2.60016   2.61198   2.62193
 Alpha virt. eigenvalues --    2.63421   2.64072   2.64390   2.64535   2.64972
 Alpha virt. eigenvalues --    2.65083   2.65303   2.66432   2.67162   2.74263
 Alpha virt. eigenvalues --    2.76317   2.81917   3.40806   3.42675   3.43301
 Alpha virt. eigenvalues --    3.43766   3.44063   3.47536   4.09168
          Condensed to atoms (all electrons):
               1          2          3          4          5          6
     1  Si  11.481812   0.387533   0.385658   0.338014  -0.035149  -0.021710
     2  O    0.387533   7.964354  -0.021527  -0.012233   0.001174   0.302545
     3  O    0.385658  -0.021527   7.973323  -0.019181  -0.001166  -0.000430
     4  O    0.338014  -0.012233  -0.019181   8.291438   0.178927  -0.000342
     5  Zr  -0.035149   0.001174  -0.001166   0.178927   9.724828  -0.000896
     6  H   -0.021710   0.302545  -0.000430  -0.000342  -0.000896   0.389717
     7  H   -0.023260   0.000531   0.301056   0.001941  -0.000910  -0.000057
     8  O    0.346647  -0.019488  -0.015092  -0.020855   0.028597   0.000522
     9  H   -0.020996  -0.000181  -0.000974   0.000884  -0.002293  -0.000007
    10  O   -0.002958   0.000000   0.000001   0.000600   0.221041  -0.000000
    11  H    0.000026  -0.000000   0.000000  -0.000061  -0.016548   0.000000
    12  O   -0.002893   0.000003   0.000000   0.000568   0.219222  -0.000000
    13  H    0.000046  -0.000001  -0.000000  -0.000041  -0.015494  -0.000000
    14  O    0.000066   0.000000   0.000000   0.000617   0.214364   0.000000
    15  H   -0.000024   0.000000  -0.000000  -0.000030  -0.015902  -0.000000
               7          8          9         10         11         12
     1  Si  -0.023260   0.346647  -0.020996  -0.002958   0.000026  -0.002893
     2  O    0.000531  -0.019488  -0.000181   0.000000  -0.000000   0.000003
     3  O    0.301056  -0.015092  -0.000974   0.000001   0.000000   0.000000
     4  O    0.001941  -0.020855   0.000884   0.000600  -0.000061   0.000568
     5  Zr  -0.000910   0.028597  -0.002293   0.221041  -0.016548   0.219222
     6  H   -0.000057   0.000522  -0.000007  -0.000000   0.000000  -0.000000
     7  H    0.393371  -0.000796   0.000079  -0.000004  -0.000000   0.000000
     8  O   -0.000796   7.991319   0.301849  -0.000106  -0.000058  -0.000080
     9  H    0.000079   0.301849   0.390055   0.000002   0.000001   0.000002
    10  O   -0.000004  -0.000106   0.000002   8.174628   0.297892   0.000776
    11  H   -0.000000  -0.000058   0.000001   0.297892   0.385643  -0.000510
    12  O    0.000000  -0.000080   0.000002   0.000776  -0.000510   8.173154
    13  H    0.000000   0.000000  -0.000000  -0.000052  -0.000003   0.299041
    14  O   -0.000000  -0.000000   0.000000   0.000900  -0.000022   0.000878
    15  H    0.000000  -0.000000   0.000000  -0.000501  -0.000002  -0.000084
              13         14         15
     1  Si   0.000046   0.000066  -0.000024
     2  O   -0.000001   0.000000   0.000000
     3  O   -0.000000   0.000000  -0.000000
     4  O   -0.000041   0.000617  -0.000030
     5  Zr  -0.015494   0.214364  -0.015902
     6  H   -0.000000   0.000000  -0.000000
     7  H    0.000000  -0.000000   0.000000
     8  O    0.000000  -0.000000  -0.000000
     9  H   -0.000000   0.000000   0.000000
    10  O   -0.000052   0.000900  -0.000501
    11  H   -0.000003  -0.000022  -0.000002
    12  O    0.299041   0.000878  -0.000084
    13  H    0.385418  -0.000432  -0.000005
    14  O   -0.000432   8.180673   0.297505
    15  H   -0.000005   0.297505   0.387955
 Mulliken charges:
               1
     1  Si   1.167185
     2  O   -0.602710
     3  O   -0.601668
     4  O   -0.760244
     5  Zr   1.500205
     6  H    0.330659
     7  H    0.328049
     8  O   -0.612461
     9  H    0.331579
    10  O   -0.692220
    11  H    0.333642
    12  O   -0.690077
    13  H    0.331523
    14  O   -0.694550
    15  H    0.331087
 Sum of Mulliken charges =  -0.00000
 Mulliken charges with hydrogens summed into heavy atoms:
               1
     1  Si   1.167185
     2  O   -0.272050
     3  O   -0.273619
     4  O   -0.760244
     5  Zr   1.500205
     8  O   -0.280882
    10  O   -0.358579
    12  O   -0.358554
    14  O   -0.363463
 Electronic spatial extent (au):  <R**2>=           2152.8328
 Charge=             -0.0000 electrons
 Dipole moment (field-independent basis, Debye):
    X=              1.5905    Y=             -0.1224    Z=              0.2682  Tot=              1.6176
 Quadrupole moment (field-independent basis, Debye-Ang):
   XX=            -65.8247   YY=            -68.0284   ZZ=            -68.5542
   XY=              0.1183   XZ=             -0.0421   YZ=              0.2797
 Traceless Quadrupole moment (field-independent basis, Debye-Ang):
   XX=              1.6444   YY=             -0.5593   ZZ=             -1.0851
   XY=              0.1183   XZ=             -0.0421   YZ=              0.2797
 Octapole moment (field-independent basis, Debye-Ang**2):
  XXX=             56.3102  YYY=             -6.3225  ZZZ=             10.5245  XYY=             20.6106
  XXY=              5.3926  XXZ=            -10.3605  XZZ=              4.5292  YZZ=             10.3718
  YYZ=             -1.8394  XYZ=             -6.6373
 Hexadecapole moment (field-independent basis, Debye-Ang**3):
 XXXX=          -1727.8517 YYYY=           -335.4564 ZZZZ=           -324.6108 XXXY=            -94.2177
 XXXZ=             -4.5339 YYYX=             23.6258 YYYZ=            -19.0140 ZZZX=             62.6580
 ZZZY=              8.2588 XXYY=           -310.9834 XXZZ=           -300.6813 YYZZ=           -124.6075
 XXYZ=             35.9492 YYXZ=            -61.2476 ZZXY=             14.6561
 N-N= 6.381739588729D+02 E-N=-3.313198639155D+03  KE= 8.297830881551D+02
   1 Symmetry operations used in ECPInt.
 ECPInt:  NShTT=    1770 NPrTT=   10201 LenC2=    1642 LenP2D=    6528.
 LDataN:  DoStor=T MaxTD1= 6 Len=  172
 Calling FoFJK, ICntrl=      2127 FMM=F ISym2X=0 I1Cent= 0 IOpClX= 0 NMat=1 NMatS=1 NMatT=0.
 Defaulting to unpruned grid for atomic number  40.
 Defaulting to unpruned grid for atomic number  40.
 Defaulting to unpruned grid for atomic number  40.
 Defaulting to unpruned grid for atomic number  40.
 Defaulting to unpruned grid for atomic number  40.
 Defaulting to unpruned grid for atomic number  40.
 Defaulting to unpruned grid for atomic number  40.
 Defaulting to unpruned grid for atomic number  40.
 Defaulting to unpruned grid for atomic number  40.
 Defaulting to unpruned grid for atomic number  40.
 Defaulting to unpruned grid for atomic number  40.
 Defaulting to unpruned grid for atomic number  40.
 Defaulting to unpruned grid for atomic number  40.
 Defaulting to unpruned grid for atomic number  40.
 Defaulting to unpruned grid for atomic number  40.
 Defaulting to unpruned grid for atomic number  40.
 ***** Axes restored to original set *****
 -------------------------------------------------------------------
 Center     Atomic                   Forces (Hartrees/Bohr)
 Number     Number              X              Y              Z
 -------------------------------------------------------------------
      1       14           0.000142927    0.000089209   -0.000044507
      2        8          -0.000004312    0.000222780    0.000181351
      3        8          -0.000103217    0.000003557   -0.000018062
      4        8          -0.000023302   -0.000234640    0.000050017
      5       40          -0.000159901    0.000258296    0.000154006
      6        1          -0.000065375   -0.000176585   -0.000187053
      7        1           0.000023634   -0.000037341   -0.000013909
      8        8           0.000026544   -0.000029571    0.000030968
      9        1           0.000072800    0.000004843   -0.000033273
     10        8           0.000158336    0.000075512    0.000274707
     11        1          -0.000096187   -0.000157589   -0.000284064
     12        8           0.000092193    0.000065930   -0.000192646
     13        1          -0.000059626   -0.000061874    0.000107297
     14        8          -0.000034353   -0.000023084   -0.000093091
     15        1           0.000029838    0.000000557    0.000068258
 -------------------------------------------------------------------
 Cartesian Forces:  Max     0.000284064 RMS     0.000123411

 GradGradGradGradGradGradGradGradGradGradGradGradGradGradGradGradGradGrad
 Berny optimization.
 FormGI is forming the generalized inverse of G from B-inverse, IUseBI=4.
 Internal  Forces:  Max     0.000479356 RMS     0.000103726
 Search for a local minimum.
 Step number   1 out of a maximum of   67
 All quantities printed in internal units (Hartrees-Bohrs-Radians)
 Mixed Optimization -- En-DIIS/RFO-DIIS
 Second derivative matrix not updated -- first step.
 ITU=  0
     Eigenvalues ---    0.00230   0.00230   0.00230   0.00230   0.03606
     Eigenvalues ---    0.03635   0.03686   0.03869   0.09885   0.10036
     Eigenvalues ---    0.10491   0.11749   0.12084   0.12674   0.16000
     Eigenvalues ---    0.16000   0.16000   0.16000   0.16000   0.16000
     Eigenvalues ---    0.18372   0.19922   0.20136   0.20148   0.20165
     Eigenvalues ---    0.20216   0.20449   0.21299   0.25000   0.41836
     Eigenvalues ---    0.42165   0.42741   0.44919   0.54731   0.54774
     Eigenvalues ---    0.54818   0.55108   0.55234   0.55357
 RFO step:  Lambda=-3.90030865D-06 EMin= 2.30000000D-03
 Linear search not attempted -- first point.
 Iteration  1 RMS(Cart)=  0.00313479 RMS(Int)=  0.00001045
 Iteration  2 RMS(Cart)=  0.00001208 RMS(Int)=  0.00000008
 Iteration  3 RMS(Cart)=  0.00000000 RMS(Int)=  0.00000008
 Variable       Old X    -DE/DX   Delta X   Delta X   Delta X     New X
                                 (Linear)    (Quad)   (Total)
    R1        3.11690   0.00006   0.00000   0.00014   0.00014   3.11705
    R2        3.12833   0.00007   0.00000   0.00016   0.00016   3.12849
    R3        3.09070  -0.00009   0.00000  -0.00019  -0.00019   3.09051
    R4        3.12414  -0.00001   0.00000  -0.00002  -0.00002   3.12412
    R5        1.81995   0.00026   0.00000   0.00047   0.00047   1.82041
    R6        1.82072   0.00004   0.00000   0.00007   0.00007   1.82078
    R7        3.76823  -0.00002   0.00000  -0.00012  -0.00012   3.76811
    R8        3.70192   0.00002   0.00000   0.00011   0.00011   3.70202
    R9        3.69409   0.00002   0.00000   0.00012   0.00012   3.69420
   R10        3.70420   0.00003   0.00000   0.00012   0.00012   3.70433
   R11        1.82034  -0.00006   0.00000  -0.00011  -0.00011   1.82023
   R12        1.81736  -0.00033   0.00000  -0.00060  -0.00060   1.81676
   R13        1.81516  -0.00013   0.00000  -0.00024  -0.00024   1.81492
   R14        1.81625   0.00003   0.00000   0.00005   0.00005   1.81629
    A1        1.84906  -0.00010   0.00000  -0.00032  -0.00032   1.84874
    A2        2.01199   0.00008   0.00000   0.00039   0.00039   2.01238
    A3        1.86354   0.00005   0.00000   0.00018   0.00018   1.86372
    A4        1.90813   0.00008   0.00000   0.00041   0.00041   1.90854
    A5        1.99583   0.00007   0.00000   0.00035   0.00035   1.99619
    A6        1.83963  -0.00017   0.00000  -0.00097  -0.00097   1.83866
    A7        1.99984  -0.00008   0.00000  -0.00051  -0.00051   1.99933
    A8        1.99197   0.00000   0.00000   0.00000   0.00000   1.99197
    A9        2.46809  -0.00048   0.00000  -0.00192  -0.00192   2.46617
   A10        1.91962   0.00002   0.00000   0.00024   0.00024   1.91986
   A11        1.92075   0.00000   0.00000   0.00021   0.00021   1.92096
   A12        1.87790  -0.00001   0.00000  -0.00034  -0.00034   1.87756
   A13        1.91102   0.00011   0.00000   0.00081   0.00081   1.91183
   A14        1.90681  -0.00008   0.00000  -0.00062  -0.00062   1.90619
   A15        1.92749  -0.00004   0.00000  -0.00033  -0.00033   1.92716
   A16        2.01104   0.00002   0.00000   0.00010   0.00010   2.01114
   A17        2.42361  -0.00002   0.00000  -0.00016  -0.00016   2.42346
   A18        2.50673   0.00006   0.00000   0.00039   0.00039   2.50711
   A19        2.43348  -0.00012   0.00000  -0.00077  -0.00077   2.43272
    D1       -0.59453  -0.00003   0.00000  -0.00082  -0.00082  -0.59535
    D2        1.51794   0.00004   0.00000  -0.00030  -0.00030   1.51765
    D3       -2.72867  -0.00009   0.00000  -0.00116  -0.00116  -2.72983
    D4        2.69355  -0.00000   0.00000  -0.00033  -0.00033   2.69323
    D5        0.51525  -0.00008   0.00000  -0.00084  -0.00084   0.51441
    D6       -1.54225   0.00004   0.00000  -0.00012  -0.00012  -1.54238
    D7        1.79385  -0.00007   0.00000  -0.00191  -0.00191   1.79194
    D8       -2.40926  -0.00008   0.00000  -0.00176  -0.00176  -2.41102
    D9       -0.25622  -0.00006   0.00000  -0.00169  -0.00169  -0.25791
   D10        0.65431  -0.00005   0.00000  -0.00081  -0.00081   0.65350
   D11       -1.38475  -0.00001   0.00000  -0.00073  -0.00073  -1.38548
   D12        2.80227  -0.00003   0.00000  -0.00078  -0.00078   2.80148
   D13        1.17416   0.00008   0.00000   0.00104   0.00104   1.17520
   D14       -0.93268  -0.00006   0.00000  -0.00026  -0.00026  -0.93294
   D15       -3.03367  -0.00001   0.00000   0.00023   0.00023  -3.03345
   D16       -1.71085  -0.00002   0.00000   0.01200   0.01200  -1.69886
   D17        0.40183   0.00007   0.00000   0.01293   0.01293   0.41477
   D18        2.51479   0.00004   0.00000   0.01264   0.01264   2.52743
   D19       -1.85875   0.00004   0.00000  -0.00070  -0.00070  -1.85946
   D20        2.31243  -0.00005   0.00000  -0.00166  -0.00166   2.31077
   D21        0.21204   0.00000   0.00000  -0.00120  -0.00120   0.21084
   D22       -2.19439  -0.00000   0.00000  -0.00237  -0.00237  -2.19676
   D23       -0.11084  -0.00003   0.00000  -0.00263  -0.00263  -0.11347
   D24        1.99207   0.00002   0.00000  -0.00223  -0.00223   1.98984
         Item               Value     Threshold  Converged?
 Maximum Force            0.000479     0.000450     NO 
 RMS     Force            0.000104     0.000300     YES
 Maximum Displacement     0.014486     0.001800     NO 
 RMS     Displacement     0.003134     0.001200     NO 
 Predicted change in Energy=-1.950233D-06
 GradGradGradGradGradGradGradGradGradGradGradGradGradGradGradGradGradGrad

                          Input orientation:                          
 ---------------------------------------------------------------------
 Center     Atomic      Atomic             Coordinates (Angstroms)
 Number     Number       Type             X           Y           Z
 ---------------------------------------------------------------------
      1         14           0       -2.111355   -0.057247   -0.032365
      2          8           0       -2.897346    0.833593   -1.176644
      3          8           0       -3.031856   -1.413741    0.198657
      4          8           0       -0.584046   -0.497780   -0.416910
      5         40           0        1.314951   -0.023135   -0.036713
      6          1           0       -3.354248    0.312349   -1.845623
      7          1           0       -2.537067   -2.175541    0.519923
      8          8           0       -1.965924    0.904386    1.304505
      9          1           0       -2.720695    1.475382    1.483619
     10          8           0        1.749288   -0.439426    1.827647
     11          1           0        1.806852    0.010347    2.675383
     12          8           0        1.609367    1.880993   -0.367174
     13          1           0        2.012537    2.507606   -0.973149
     14          8           0        2.443644   -1.104974   -1.219186
     15          1           0        3.183490   -1.715971   -1.163479
 ---------------------------------------------------------------------
                    Distance matrix (angstroms):
                    1          2          3          4          5
     1  Si   0.000000
     2  O    1.649470   0.000000
     3  O    1.655526   2.638192   0.000000
     4  O    1.635426   2.775087   2.685084   0.000000
     5  Zr   3.426478   4.447119   4.569891   1.993997   0.000000
     6  H    2.229190   0.963321   2.694885   3.220489   5.018578
     7  H    2.230117   3.473187   0.963518   2.739859   4.447554
     8  O    1.653212   2.651162   2.780796   2.615134   3.663782
     9  H    2.240191   2.742280   3.177260   3.474284   4.565457
    10  O    4.302356   5.677812   5.144146   3.238192   1.959027
    11  H    4.763278   6.135579   5.619190   3.941683   2.756547
    12  O    4.208640   4.697101   5.719824   3.236062   1.954889
    13  H    4.946720   5.191405   6.495844   4.010485   2.787147
    14  O    4.822270   5.682079   5.664513   3.190491   1.960246
    15  H    5.662700   6.593711   6.370030   4.029353   2.761655
                    6          7          8          9         10
     6  H    0.000000
     7  H    3.528908   0.000000
     8  O    3.493030   3.229199   0.000000
     9  H    3.583000   3.780432   0.963223   0.000000
    10  O    6.332785   4.805942   3.985261   4.874997   0.000000
    11  H    6.867872   5.319187   4.112475   4.905641   0.961387
    12  O    5.411463   5.868162   4.065831   4.726457   3.197056
    13  H    5.863680   6.697763   4.856560   5.431822   4.074157
    14  O    6.001398   5.383130   5.463591   6.374464   3.195039
    15  H    6.879057   5.980788   6.282808   7.214657   3.554341
                   11         12         13         14         15
    11  H    0.000000
    12  O    3.577076   0.000000
    13  H    4.426104   0.960414   0.000000
    14  O    4.100867   3.215267   3.646522   0.000000
    15  H    4.428563   4.006260   4.387022   0.961142   0.000000
 Stoichiometry    H6O7SiZr
 Framework group  C1[X(H6O7SiZr)]
 Deg. of freedom    39
 Full point group                 C1      NOp   1
 Largest Abelian subgroup         C1      NOp   1
 Largest concise Abelian subgroup C1      NOp   1
                         Standard orientation:                         
 ---------------------------------------------------------------------
 Center     Atomic      Atomic             Coordinates (Angstroms)
 Number     Number       Type             X           Y           Z
 ---------------------------------------------------------------------
      1         14           0       -2.111490   -0.056430   -0.033136
      2          8           0       -2.897087    0.845384   -1.169059
      3          8           0       -3.032312   -1.414862    0.184845
      4          8           0       -0.584201   -0.493613   -0.421564
      5         40           0        1.314824   -0.022989   -0.036538
      6          1           0       -3.353974    0.330602   -1.843034
      7          1           0       -2.537739   -2.179777    0.498963
      8          8           0       -1.966106    0.892453    1.312819
      9          1           0       -2.720793    1.461882    1.497202
     10          8           0        1.748733   -0.457030    1.823870
     11          1           0        1.806234   -0.015327    2.675843
     12          8           0        1.609693    1.884126   -0.348875
     13          1           0        2.013103    2.516374   -0.948807
     14          8           0        2.443511   -1.093801   -1.229011
     15          1           0        3.183222   -1.705452   -1.178966
 ---------------------------------------------------------------------
 Rotational constants (GHZ):           1.6647343           0.5032079           0.4991753
 Basis read from rwf:  (5D, 7F)
 Pseudo-potential data read from rwf file.
 There are   178 symmetry adapted cartesian basis functions of A   symmetry.
 There are   168 symmetry adapted basis functions of A   symmetry.
   168 basis functions,   339 primitive gaussians,   178 cartesian basis functions
    44 alpha electrons       44 beta electrons
       nuclear repulsion energy       638.2441584625 Hartrees.
 NAtoms=   15 NActive=   15 NUniq=   15 SFac= 1.00D+00 NAtFMM=   60 NAOKFM=F Big=F
 Integral buffers will be    131072 words long.
 Raffenetti 2 integral format.
 Two-electron integral symmetry is turned on.
 One-electron integrals computed using PRISM.
   1 Symmetry operations used in ECPInt.
 ECPInt:  NShTT=    1770 NPrTT=   10201 LenC2=    1641 LenP2D=    6529.
 LDataN:  DoStor=T MaxTD1= 5 Len=  102
 NBasis=   168 RedAO= T EigKep=  1.48D-02  NBF=   168
 NBsUse=   168 1.00D-06 EigRej= -1.00D+00 NBFU=   168
 Defaulting to unpruned grid for atomic number  40.
 Initial guess from the checkpoint file:  "/localscratch/sarashs.33272397.0/Gau-28604.chk"
 B after Tr=     0.000000   -0.000000   -0.000000
         Rot=    0.999989   -0.004695   -0.000006    0.000070 Ang=  -0.54 deg.
 Requested convergence on RMS density matrix=1.00D-08 within 128 cycles.
 Requested convergence on MAX density matrix=1.00D-06.
 Requested convergence on             energy=1.00D-06.
 No special actions if energy rises.
 Defaulting to unpruned grid for atomic number  40.
 Defaulting to unpruned grid for atomic number  40.
 Defaulting to unpruned grid for atomic number  40.
 Defaulting to unpruned grid for atomic number  40.
 Defaulting to unpruned grid for atomic number  40.
 Defaulting to unpruned grid for atomic number  40.
 Defaulting to unpruned grid for atomic number  40.
 Defaulting to unpruned grid for atomic number  40.
 Defaulting to unpruned grid for atomic number  40.
 Defaulting to unpruned grid for atomic number  40.
 Defaulting to unpruned grid for atomic number  40.
 Defaulting to unpruned grid for atomic number  40.
 Defaulting to unpruned grid for atomic number  40.
 Defaulting to unpruned grid for atomic number  40.
 Defaulting to unpruned grid for atomic number  40.
 Defaulting to unpruned grid for atomic number  40.
 SCF Done:  E(RB3LYP) =  -866.687278442     A.U. after    8 cycles
            NFock=  8  Conv=0.65D-08     -V/T= 2.0445
   1 Symmetry operations used in ECPInt.
 ECPInt:  NShTT=    1770 NPrTT=   10201 LenC2=    1641 LenP2D=    6529.
 LDataN:  DoStor=T MaxTD1= 6 Len=  172
 Calling FoFJK, ICntrl=      2127 FMM=F ISym2X=0 I1Cent= 0 IOpClX= 0 NMat=1 NMatS=1 NMatT=0.
 Defaulting to unpruned grid for atomic number  40.
 Defaulting to unpruned grid for atomic number  40.
 Defaulting to unpruned grid for atomic number  40.
 Defaulting to unpruned grid for atomic number  40.
 Defaulting to unpruned grid for atomic number  40.
 Defaulting to unpruned grid for atomic number  40.
 Defaulting to unpruned grid for atomic number  40.
 Defaulting to unpruned grid for atomic number  40.
 Defaulting to unpruned grid for atomic number  40.
 Defaulting to unpruned grid for atomic number  40.
 Defaulting to unpruned grid for atomic number  40.
 Defaulting to unpruned grid for atomic number  40.
 Defaulting to unpruned grid for atomic number  40.
 Defaulting to unpruned grid for atomic number  40.
 Defaulting to unpruned grid for atomic number  40.
 Defaulting to unpruned grid for atomic number  40.
 ***** Axes restored to original set *****
 -------------------------------------------------------------------
 Center     Atomic                   Forces (Hartrees/Bohr)
 Number     Number              X              Y              Z
 -------------------------------------------------------------------
      1       14           0.000068801    0.000070762   -0.000070251
      2        8          -0.000072232    0.000069590    0.000048277
      3        8          -0.000027045    0.000021954   -0.000005143
      4        8          -0.000038775   -0.000282901   -0.000026921
      5       40          -0.000032365    0.000199502    0.000105956
      6        1           0.000036347   -0.000033224   -0.000020030
      7        1           0.000008886   -0.000012685   -0.000019934
      8        8           0.000013137   -0.000025020    0.000056107
      9        1           0.000022476    0.000046277   -0.000009014
     10        8           0.000098912   -0.000036963   -0.000024719
     11        1          -0.000051651   -0.000005350    0.000014657
     12        8           0.000008419   -0.000026862   -0.000077040
     13        1          -0.000007761    0.000016354    0.000026034
     14        8          -0.000042280   -0.000009914   -0.000069099
     15        1           0.000015131    0.000008480    0.000071120
 -------------------------------------------------------------------
 Cartesian Forces:  Max     0.000282901 RMS     0.000067857

 GradGradGradGradGradGradGradGradGradGradGradGradGradGradGradGradGradGrad
 Berny optimization.
 Using GEDIIS/GDIIS optimizer.
 FormGI is forming the generalized inverse of G from B-inverse, IUseBI=4.
 Internal  Forces:  Max     0.000497185 RMS     0.000076345
 Search for a local minimum.
 Step number   2 out of a maximum of   67
 All quantities printed in internal units (Hartrees-Bohrs-Radians)
 Mixed Optimization -- En-DIIS/RFO-DIIS
 Swapping is turned off.
 Update second derivatives using D2CorX and points    1    2
 DE= -3.17D-06 DEPred=-1.95D-06 R= 1.62D+00
 TightC=F SS=  1.41D+00  RLast= 2.27D-02 DXNew= 5.0454D-01 6.8215D-02
 Trust test= 1.62D+00 RLast= 2.27D-02 DXMaxT set to 3.00D-01
 ITU=  1  0
     Eigenvalues ---    0.00102   0.00230   0.00230   0.00235   0.02745
     Eigenvalues ---    0.03610   0.03656   0.03728   0.09156   0.09991
     Eigenvalues ---    0.10479   0.11499   0.12089   0.12693   0.14227
     Eigenvalues ---    0.16000   0.16000   0.16000   0.16000   0.16075
     Eigenvalues ---    0.17986   0.18508   0.20025   0.20150   0.20207
     Eigenvalues ---    0.20243   0.20473   0.20642   0.23417   0.41916
     Eigenvalues ---    0.42323   0.42839   0.45084   0.54730   0.54774
     Eigenvalues ---    0.54908   0.55231   0.55331   0.69959
 En-DIIS/RFO-DIIS/Sim-DIIS IScMMF=       -3 using points:     2    1
 RFO step:  Lambda=-1.30224595D-05.
 DidBck=F Rises=F RFO-DIIS coefs:    3.00000   -2.00000
 Iteration  1 RMS(Cart)=  0.01783780 RMS(Int)=  0.00018573
 Iteration  2 RMS(Cart)=  0.00021690 RMS(Int)=  0.00000105
 Iteration  3 RMS(Cart)=  0.00000011 RMS(Int)=  0.00000105
 Variable       Old X    -DE/DX   Delta X   Delta X   Delta X     New X
                                 (Linear)    (Quad)   (Total)
    R1        3.11705   0.00002   0.00029   0.00007   0.00036   3.11740
    R2        3.12849  -0.00000   0.00032  -0.00009   0.00023   3.12873
    R3        3.09051  -0.00001  -0.00038  -0.00002  -0.00040   3.09010
    R4        3.12412   0.00005  -0.00004   0.00047   0.00043   3.12455
    R5        1.82041   0.00001   0.00094  -0.00014   0.00079   1.82120
    R6        1.82078   0.00001   0.00014   0.00002   0.00016   1.82094
    R7        3.76811   0.00003  -0.00024   0.00069   0.00045   3.76856
    R8        3.70202   0.00001   0.00022   0.00011   0.00033   3.70235
    R9        3.69420  -0.00000   0.00023  -0.00008   0.00016   3.69436
   R10        3.70433  -0.00002   0.00025  -0.00034  -0.00009   3.70423
   R11        1.82023   0.00001  -0.00022   0.00011  -0.00011   1.82011
   R12        1.81676   0.00001  -0.00120   0.00035  -0.00085   1.81591
   R13        1.81492  -0.00001  -0.00048   0.00006  -0.00042   1.81450
   R14        1.81629   0.00001   0.00009   0.00004   0.00013   1.81643
    A1        1.84874  -0.00004  -0.00064  -0.00032  -0.00096   1.84779
    A2        2.01238   0.00006   0.00078   0.00094   0.00172   2.01410
    A3        1.86372   0.00000   0.00035  -0.00020   0.00015   1.86387
    A4        1.90854   0.00002   0.00082   0.00031   0.00113   1.90967
    A5        1.99619   0.00004   0.00071   0.00044   0.00115   1.99734
    A6        1.83866  -0.00008  -0.00194  -0.00110  -0.00304   1.83562
    A7        1.99933  -0.00005  -0.00102  -0.00097  -0.00199   1.99734
    A8        1.99197  -0.00000   0.00001  -0.00003  -0.00002   1.99195
    A9        2.46617  -0.00050  -0.00383  -0.00615  -0.00998   2.45619
   A10        1.91986   0.00003   0.00049   0.00073   0.00121   1.92108
   A11        1.92096  -0.00004   0.00043  -0.00044  -0.00002   1.92095
   A12        1.87756   0.00000  -0.00069  -0.00031  -0.00100   1.87656
   A13        1.91183   0.00006   0.00162   0.00126   0.00288   1.91471
   A14        1.90619  -0.00007  -0.00124  -0.00121  -0.00245   1.90374
   A15        1.92716   0.00000  -0.00066  -0.00006  -0.00072   1.92644
   A16        2.01114   0.00004   0.00021   0.00078   0.00099   2.01213
   A17        2.42346  -0.00000  -0.00031  -0.00002  -0.00033   2.42313
   A18        2.50711   0.00006   0.00077   0.00104   0.00181   2.50892
   A19        2.43272  -0.00013  -0.00153  -0.00249  -0.00402   2.42869
    D1       -0.59535  -0.00003  -0.00165  -0.00196  -0.00361  -0.59896
    D2        1.51765   0.00001  -0.00059  -0.00122  -0.00181   1.51583
    D3       -2.72983  -0.00005  -0.00232  -0.00220  -0.00452  -2.73434
    D4        2.69323   0.00001  -0.00066  -0.00067  -0.00133   2.69190
    D5        0.51441  -0.00005  -0.00169  -0.00179  -0.00348   0.51092
    D6       -1.54238   0.00001  -0.00025  -0.00089  -0.00114  -1.54351
    D7        1.79194  -0.00007  -0.00381  -0.00577  -0.00958   1.78236
    D8       -2.41102  -0.00007  -0.00351  -0.00533  -0.00884  -2.41986
    D9       -0.25791  -0.00006  -0.00337  -0.00529  -0.00866  -0.26658
   D10        0.65350  -0.00004  -0.00162  -0.00236  -0.00397   0.64953
   D11       -1.38548  -0.00002  -0.00146  -0.00208  -0.00354  -1.38902
   D12        2.80148  -0.00002  -0.00156  -0.00196  -0.00352   2.79796
   D13        1.17520   0.00004   0.00208  -0.00502  -0.00294   1.17226
   D14       -0.93294  -0.00003  -0.00052  -0.00677  -0.00729  -0.94023
   D15       -3.03345  -0.00002   0.00045  -0.00625  -0.00580  -3.03924
   D16       -1.69886   0.00001   0.02399   0.02586   0.04985  -1.64900
   D17        0.41477   0.00003   0.02587   0.02658   0.05245   0.46722
   D18        2.52743   0.00003   0.02528   0.02654   0.05182   2.57925
   D19       -1.85946   0.00002  -0.00141  -0.00212  -0.00353  -1.86298
   D20        2.31077  -0.00004  -0.00332  -0.00355  -0.00687   2.30391
   D21        0.21084   0.00001  -0.00240  -0.00282  -0.00522   0.20562
   D22       -2.19676  -0.00002  -0.00475  -0.00530  -0.01005  -2.20681
   D23       -0.11347  -0.00002  -0.00525  -0.00529  -0.01054  -0.12401
   D24        1.98984   0.00002  -0.00446  -0.00454  -0.00900   1.98085
         Item               Value     Threshold  Converged?
 Maximum Force            0.000497     0.000450     NO 
 RMS     Force            0.000076     0.000300     YES
 Maximum Displacement     0.067132     0.001800     NO 
 RMS     Displacement     0.017800     0.001200     NO 
 Predicted change in Energy=-6.568646D-06
 GradGradGradGradGradGradGradGradGradGradGradGradGradGradGradGradGradGrad

                          Input orientation:                          
 ---------------------------------------------------------------------
 Center     Atomic      Atomic             Coordinates (Angstroms)
 Number     Number       Type             X           Y           Z
 ---------------------------------------------------------------------
      1         14           0       -2.107274   -0.060918   -0.031263
      2          8           0       -2.893504    0.843162   -1.165219
      3          8           0       -3.035596   -1.413404    0.192740
      4          8           0       -0.583341   -0.506314   -0.422635
      5         40           0        1.313022   -0.022291   -0.039880
      6          1           0       -3.353499    0.327795   -1.837227
      7          1           0       -2.544130   -2.181306    0.504692
      8          8           0       -1.948723    0.890127    1.311958
      9          1           0       -2.696938    1.467409    1.497973
     10          8           0        1.747041   -0.428894    1.826874
     11          1           0        1.771328    0.017225    2.677631
     12          8           0        1.602243    1.880199   -0.384549
     13          1           0        2.006406    2.504422   -0.991978
     14          8           0        2.447491   -1.108576   -1.212627
     15          1           0        3.193065   -1.711794   -1.148002
 ---------------------------------------------------------------------
                    Distance matrix (angstroms):
                    1          2          3          4          5
     1  Si   0.000000
     2  O    1.649659   0.000000
     3  O    1.655651   2.637487   0.000000
     4  O    1.635213   2.776575   2.686085   0.000000
     5  Zr   3.420525   4.439623   4.571628   1.994234   0.000000
     6  H    2.228380   0.963739   2.693251   3.220339   5.012927
     7  H    2.230278   3.472474   0.963600   2.740480   4.453709
     8  O    1.653441   2.651646   2.782121   2.612112   3.646773
     9  H    2.240993   2.742429   3.180787   3.471543   4.545765
    10  O    4.294627   5.666163   5.149103   3.239902   1.959201
    11  H    4.731571   6.100026   5.597133   3.928130   2.756170
    12  O    4.201578   4.679383   5.717572   3.236305   1.954972
    13  H    4.942297   5.176767   6.494205   4.011916   2.787750
    14  O    4.820694   5.686629   5.668529   3.189474   1.960196
    15  H    5.662693   6.601092   6.378310   4.029961   2.759877
                    6          7          8          9         10
     6  H    0.000000
     7  H    3.526365   0.000000
     8  O    3.493849   3.231082   0.000000
     9  H    3.585157   3.784584   0.963163   0.000000
    10  O    6.325640   4.820090   3.957729   4.842839   0.000000
    11  H    6.836977   5.308332   4.057807   4.843555   0.960937
    12  O    5.392551   5.871881   4.058046   4.711395   3.200511
    13  H    5.846430   6.701004   4.853567   5.421873   4.076461
    14  O    6.008725   5.386670   5.449315   6.359890   3.192360
    15  H    6.891478   5.988927   6.265731   7.197268   3.547775
                   11         12         13         14         15
    11  H    0.000000
    12  O    3.588343   0.000000
    13  H    4.439306   0.960193   0.000000
    14  O    4.105938   3.214488   3.646504   0.000000
    15  H    4.432417   4.001999   4.382805   0.961213   0.000000
 Stoichiometry    H6O7SiZr
 Framework group  C1[X(H6O7SiZr)]
 Deg. of freedom    39
 Full point group                 C1      NOp   1
 Largest Abelian subgroup         C1      NOp   1
 Largest concise Abelian subgroup C1      NOp   1
                         Standard orientation:                         
 ---------------------------------------------------------------------
 Center     Atomic      Atomic             Coordinates (Angstroms)
 Number     Number       Type             X           Y           Z
 ---------------------------------------------------------------------
      1         14           0       -2.107981   -0.056405   -0.035799
      2          8           0       -2.891362    0.897451   -1.130261
      3          8           0       -3.038195   -1.416292    0.127264
      4          8           0       -0.583927   -0.486054   -0.443946
      5         40           0        1.312365   -0.021555   -0.037395
      6          1           0       -3.350862    0.412586   -1.824926
      7          1           0       -2.548103   -2.197719    0.406023
      8          8           0       -1.950510    0.834662    1.348061
      9          1           0       -2.698368    1.404136    1.558036
     10          8           0        1.742923   -0.510107    1.810416
     11          1           0        1.766350   -0.101733    2.679946
     12          8           0        1.604297    1.893864   -0.297895
     13          1           0        2.010144    2.543623   -0.876751
     14          8           0        2.447485   -1.056760   -1.254861
     15          1           0        3.192269   -1.663129   -1.215579
 ---------------------------------------------------------------------
 Rotational constants (GHZ):           1.6661212           0.5045022           0.5004128
 Basis read from rwf:  (5D, 7F)
 Pseudo-potential data read from rwf file.
 There are   178 symmetry adapted cartesian basis functions of A   symmetry.
 There are   168 symmetry adapted basis functions of A   symmetry.
   168 basis functions,   339 primitive gaussians,   178 cartesian basis functions
    44 alpha electrons       44 beta electrons
       nuclear repulsion energy       638.5771502288 Hartrees.
 NAtoms=   15 NActive=   15 NUniq=   15 SFac= 1.00D+00 NAtFMM=   60 NAOKFM=F Big=F
 Integral buffers will be    131072 words long.
 Raffenetti 2 integral format.
 Two-electron integral symmetry is turned on.
 One-electron integrals computed using PRISM.
   1 Symmetry operations used in ECPInt.
 ECPInt:  NShTT=    1770 NPrTT=   10201 LenC2=    1641 LenP2D=    6533.
 LDataN:  DoStor=T MaxTD1= 5 Len=  102
 NBasis=   168 RedAO= T EigKep=  1.46D-02  NBF=   168
 NBsUse=   168 1.00D-06 EigRej= -1.00D+00 NBFU=   168
 Defaulting to unpruned grid for atomic number  40.
 Initial guess from the checkpoint file:  "/localscratch/sarashs.33272397.0/Gau-28604.chk"
 B after Tr=    -0.000000    0.000000    0.000000
         Rot=    0.999856   -0.016980    0.000180    0.000294 Ang=  -1.95 deg.
 ExpMin= 2.43D-02 ExpMax= 1.61D+04 ExpMxC= 2.43D+03 IAcc=3 IRadAn=         5 AccDes= 0.00D+00
 Harris functional with IExCor=  402 and IRadAn=       5 diagonalized for initial guess.
 HarFok:  IExCor=  402 AccDes= 0.00D+00 IRadAn=         5 IDoV= 1 UseB2=F ITyADJ=14
 ICtDFT=  3500011 ScaDFX=  1.000000  1.000000  1.000000  1.000000
 Defaulting to unpruned grid for atomic number  40.
 FoFCou: FMM=F IPFlag=           0 FMFlag=      100000 FMFlg1=           0
         NFxFlg=           0 DoJE=T BraDBF=F KetDBF=T FulRan=T
         wScrn=  0.000000 ICntrl=       500 IOpCl=  0 I1Cent=   200000004 NGrid=           0
         NMat0=    1 NMatS0=      1 NMatT0=    0 NMatD0=    1 NMtDS0=    0 NMtDT0=    0
 Petite list used in FoFCou.
 Requested convergence on RMS density matrix=1.00D-08 within 128 cycles.
 Requested convergence on MAX density matrix=1.00D-06.
 Requested convergence on             energy=1.00D-06.
 No special actions if energy rises.
 Defaulting to unpruned grid for atomic number  40.
 Defaulting to unpruned grid for atomic number  40.
 Defaulting to unpruned grid for atomic number  40.
 Defaulting to unpruned grid for atomic number  40.
 Defaulting to unpruned grid for atomic number  40.
 Defaulting to unpruned grid for atomic number  40.
 Defaulting to unpruned grid for atomic number  40.
 Defaulting to unpruned grid for atomic number  40.
 Defaulting to unpruned grid for atomic number  40.
 Defaulting to unpruned grid for atomic number  40.
 Defaulting to unpruned grid for atomic number  40.
 Defaulting to unpruned grid for atomic number  40.
 Defaulting to unpruned grid for atomic number  40.
 Defaulting to unpruned grid for atomic number  40.
 Defaulting to unpruned grid for atomic number  40.
 Defaulting to unpruned grid for atomic number  40.
 SCF Done:  E(RB3LYP) =  -866.687285980     A.U. after    9 cycles
            NFock=  9  Conv=0.98D-08     -V/T= 2.0445
   1 Symmetry operations used in ECPInt.
 ECPInt:  NShTT=    1770 NPrTT=   10201 LenC2=    1641 LenP2D=    6533.
 LDataN:  DoStor=T MaxTD1= 6 Len=  172
 Calling FoFJK, ICntrl=      2127 FMM=F ISym2X=0 I1Cent= 0 IOpClX= 0 NMat=1 NMatS=1 NMatT=0.
 Defaulting to unpruned grid for atomic number  40.
 Defaulting to unpruned grid for atomic number  40.
 Defaulting to unpruned grid for atomic number  40.
 Defaulting to unpruned grid for atomic number  40.
 Defaulting to unpruned grid for atomic number  40.
 Defaulting to unpruned grid for atomic number  40.
 Defaulting to unpruned grid for atomic number  40.
 Defaulting to unpruned grid for atomic number  40.
 Defaulting to unpruned grid for atomic number  40.
 Defaulting to unpruned grid for atomic number  40.
 Defaulting to unpruned grid for atomic number  40.
 Defaulting to unpruned grid for atomic number  40.
 Defaulting to unpruned grid for atomic number  40.
 Defaulting to unpruned grid for atomic number  40.
 Defaulting to unpruned grid for atomic number  40.
 Defaulting to unpruned grid for atomic number  40.
 ***** Axes restored to original set *****
 -------------------------------------------------------------------
 Center     Atomic                   Forces (Hartrees/Bohr)
 Number     Number              X              Y              Z
 -------------------------------------------------------------------
      1       14          -0.000089496    0.000103183   -0.000038828
      2        8          -0.000105084   -0.000233551   -0.000151916
      3        8           0.000157609    0.000043540    0.000043818
      4        8          -0.000071160   -0.000350242   -0.000236916
      5       40           0.000172198   -0.000008490    0.000092067
      6        1           0.000164250    0.000236530    0.000226333
      7        1          -0.000022745    0.000035615   -0.000031995
      8        8          -0.000069134    0.000011666    0.000104859
      9        1          -0.000044298    0.000077525    0.000000187
     10        8          -0.000017743   -0.000130330   -0.000502863
     11        1           0.000022908    0.000215313    0.000448064
     12        8          -0.000161136   -0.000116252    0.000159207
     13        1           0.000071631    0.000131229   -0.000105932
     14        8           0.000000433   -0.000025699   -0.000071612
     15        1          -0.000008232    0.000009962    0.000065526
 -------------------------------------------------------------------
 Cartesian Forces:  Max     0.000502863 RMS     0.000159643

 GradGradGradGradGradGradGradGradGradGradGradGradGradGradGradGradGradGrad
 Berny optimization.
 Using GEDIIS/GDIIS optimizer.
 FormGI is forming the generalized inverse of G from B-inverse, IUseBI=4.
 Internal  Forces:  Max     0.000545414 RMS     0.000133324
 Search for a local minimum.
 Step number   3 out of a maximum of   67
 All quantities printed in internal units (Hartrees-Bohrs-Radians)
 Mixed Optimization -- En-DIIS/RFO-DIIS
 Swapping is turned off.
 Update second derivatives using D2CorX and points    1    2    3
 DE= -7.54D-06 DEPred=-6.57D-06 R= 1.15D+00
 TightC=F SS=  1.41D+00  RLast= 9.43D-02 DXNew= 5.0454D-01 2.8293D-01
 Trust test= 1.15D+00 RLast= 9.43D-02 DXMaxT set to 3.00D-01
 ITU=  1  1  0
     Eigenvalues ---    0.00072   0.00230   0.00230   0.00236   0.02429
     Eigenvalues ---    0.03610   0.03659   0.03725   0.09295   0.09998
     Eigenvalues ---    0.10562   0.11390   0.12095   0.12687   0.13691
     Eigenvalues ---    0.16000   0.16000   0.16000   0.16033   0.16149
     Eigenvalues ---    0.17655   0.18513   0.20132   0.20151   0.20233
     Eigenvalues ---    0.20286   0.20479   0.20610   0.25022   0.41961
     Eigenvalues ---    0.42338   0.42922   0.45190   0.54733   0.54782
     Eigenvalues ---    0.54915   0.55231   0.55332   0.82224
 En-DIIS/RFO-DIIS/Sim-DIIS IScMMF=       -3 using points:     3    2    1
 RFO step:  Lambda=-6.51267464D-06.
 DidBck=F Rises=F RFO-DIIS coefs:    1.14100    1.76143   -1.90243
 Iteration  1 RMS(Cart)=  0.01005455 RMS(Int)=  0.00006948
 Iteration  2 RMS(Cart)=  0.00008332 RMS(Int)=  0.00000147
 Iteration  3 RMS(Cart)=  0.00000002 RMS(Int)=  0.00000147
 Variable       Old X    -DE/DX   Delta X   Delta X   Delta X     New X
                                 (Linear)    (Quad)   (Total)
    R1        3.11740  -0.00008   0.00032  -0.00019   0.00014   3.11754
    R2        3.12873  -0.00014   0.00034  -0.00034   0.00000   3.12873
    R3        3.09010   0.00012  -0.00042   0.00028  -0.00014   3.08997
    R4        3.12455   0.00013   0.00003   0.00034   0.00036   3.12492
    R5        1.82120  -0.00036   0.00100  -0.00074   0.00027   1.82147
    R6        1.82094  -0.00005   0.00015  -0.00010   0.00006   1.82100
    R7        3.76856   0.00011  -0.00017   0.00066   0.00049   3.76904
    R8        3.70235  -0.00007   0.00025  -0.00028  -0.00003   3.70232
    R9        3.69436  -0.00001   0.00024  -0.00009   0.00015   3.69451
   R10        3.70423   0.00001   0.00022  -0.00009   0.00013   3.70436
   R11        1.82011   0.00008  -0.00023   0.00018  -0.00004   1.82007
   R12        1.81591   0.00050  -0.00126   0.00102  -0.00024   1.81566
   R13        1.81450   0.00018  -0.00052   0.00037  -0.00015   1.81435
   R14        1.81643  -0.00001   0.00011  -0.00002   0.00008   1.81651
    A1        1.84779   0.00013  -0.00074   0.00045  -0.00029   1.84749
    A2        2.01410  -0.00003   0.00099  -0.00004   0.00095   2.01504
    A3        1.86387  -0.00012   0.00036  -0.00055  -0.00020   1.86367
    A4        1.90967  -0.00012   0.00094  -0.00053   0.00041   1.91008
    A5        1.99734  -0.00005   0.00083  -0.00026   0.00058   1.99791
    A6        1.83562   0.00018  -0.00227   0.00089  -0.00138   1.83424
    A7        1.99734   0.00009  -0.00126   0.00045  -0.00080   1.99653
    A8        1.99195  -0.00000   0.00001  -0.00001  -0.00000   1.99195
    A9        2.45619  -0.00055  -0.00506  -0.00217  -0.00722   2.44897
   A10        1.92108   0.00009   0.00064   0.00033   0.00096   1.92204
   A11        1.92095  -0.00015   0.00040  -0.00101  -0.00061   1.92034
   A12        1.87656   0.00004  -0.00080   0.00044  -0.00035   1.87620
   A13        1.91471  -0.00008   0.00195  -0.00058   0.00136   1.91607
   A14        1.90374  -0.00002  -0.00152   0.00015  -0.00137   1.90237
   A15        1.92644   0.00013  -0.00073   0.00070  -0.00003   1.92641
   A16        2.01213   0.00001   0.00034   0.00019   0.00052   2.01266
   A17        2.42313   0.00004  -0.00034   0.00024  -0.00010   2.42302
   A18        2.50892   0.00003   0.00099   0.00021   0.00120   2.51012
   A19        2.42869  -0.00012  -0.00203  -0.00077  -0.00279   2.42590
    D1       -0.59896   0.00000  -0.00208  -0.00014  -0.00222  -0.60118
    D2        1.51583  -0.00007  -0.00082  -0.00050  -0.00132   1.51451
    D3       -2.73434   0.00006  -0.00284   0.00021  -0.00263  -2.73698
    D4        2.69190   0.00001  -0.00081  -0.00011  -0.00092   2.69098
    D5        0.51092   0.00004  -0.00210  -0.00003  -0.00213   0.50880
    D6       -1.54351  -0.00008  -0.00040  -0.00063  -0.00103  -1.54454
    D7        1.78236  -0.00008  -0.00498  -0.00140  -0.00638   1.77598
    D8       -2.41986  -0.00002  -0.00459  -0.00123  -0.00582  -2.42567
    D9       -0.26658  -0.00004  -0.00443  -0.00130  -0.00572  -0.27230
   D10        0.64953  -0.00000  -0.00210  -0.00058  -0.00268   0.64685
   D11       -1.38902  -0.00005  -0.00189  -0.00062  -0.00252  -1.39154
   D12        2.79796  -0.00000  -0.00198  -0.00043  -0.00241   2.79554
   D13        1.17226  -0.00006   0.00156  -0.00056   0.00100   1.17325
   D14       -0.94023   0.00008  -0.00152   0.00060  -0.00093  -0.94116
   D15       -3.03924  -0.00001  -0.00039   0.00006  -0.00032  -3.03957
   D16       -1.64900   0.00009   0.02985   0.00047   0.03032  -1.61868
   D17        0.46722  -0.00009   0.03200  -0.00094   0.03106   0.49828
   D18        2.57925   0.00000   0.03135  -0.00035   0.03100   2.61025
   D19       -1.86298  -0.00002  -0.00184  -0.00048  -0.00231  -1.86529
   D20        2.30391   0.00001  -0.00412   0.00013  -0.00399   2.29991
   D21        0.20562   0.00001  -0.00302  -0.00012  -0.00314   0.20248
   D22       -2.20681  -0.00007  -0.00593   0.00002  -0.00591  -2.21272
   D23       -0.12401   0.00005  -0.00648   0.00075  -0.00573  -0.12974
   D24        1.98085   0.00002  -0.00551   0.00057  -0.00494   1.97591
         Item               Value     Threshold  Converged?
 Maximum Force            0.000545     0.000450     NO 
 RMS     Force            0.000133     0.000300     YES
 Maximum Displacement     0.038694     0.001800     NO 
 RMS     Displacement     0.010046     0.001200     NO 
 Predicted change in Energy=-2.733806D-06
 GradGradGradGradGradGradGradGradGradGradGradGradGradGradGradGradGradGrad

                          Input orientation:                          
 ---------------------------------------------------------------------
 Center     Atomic      Atomic             Coordinates (Angstroms)
 Number     Number       Type             X           Y           Z
 ---------------------------------------------------------------------
      1         14           0       -2.104387   -0.063171   -0.030806
      2          8           0       -2.889807    0.847889   -1.159833
      3          8           0       -3.038295   -1.412132    0.191229
      4          8           0       -0.582953   -0.513595   -0.425820
      5         40           0        1.311681   -0.022923   -0.041626
      6          1           0       -3.352116    0.335900   -1.833037
      7          1           0       -2.549381   -2.183523    0.498642
      8          8           0       -1.937567    0.883559    1.314697
      9          1           0       -2.681354    1.465576    1.503573
     10          8           0        1.746517   -0.424314    1.826049
     11          1           0        1.750852    0.018267    2.678840
     12          8           0        1.595106    1.879309   -0.392919
     13          1           0        1.998813    2.503409   -1.000652
     14          8           0        2.450504   -1.109766   -1.209740
     15          1           0        3.199978   -1.707643   -1.140107
 ---------------------------------------------------------------------
                    Distance matrix (angstroms):
                    1          2          3          4          5
     1  Si   0.000000
     2  O    1.649732   0.000000
     3  O    1.655651   2.637254   0.000000
     4  O    1.635139   2.777407   2.686415   0.000000
     5  Zr   3.416323   4.434096   4.572353   1.994493   0.000000
     6  H    2.228030   0.963880   2.692907   3.220274   5.008883
     7  H    2.230298   3.472159   0.963630   2.740462   4.457340
     8  O    1.653634   2.651666   2.782800   2.610827   3.635785
     9  H    2.241490   2.742029   3.182900   3.470297   4.532946
    10  O    4.290431   5.659461   5.151974   3.241190   1.959185
    11  H    4.712927   6.079425   5.583026   3.920260   2.755994
    12  O    4.194115   4.665450   5.713424   3.235893   1.955051
    13  H    4.936009   5.163787   6.490339   4.012263   2.788232
    14  O    4.819988   5.688042   5.672835   3.189328   1.960264
    15  H    5.663137   6.604287   6.385595   4.030697   2.758733
                    6          7          8          9         10
     6  H    0.000000
     7  H    3.525422   0.000000
     8  O    3.494153   3.232221   0.000000
     9  H    3.585952   3.787245   0.963139   0.000000
    10  O    6.321620   4.828205   3.942650   4.825113   0.000000
    11  H    6.818959   5.300297   4.026667   4.808368   0.960807
    12  O    5.378759   5.871819   4.048116   4.696378   3.202097
    13  H    5.832958   6.700842   4.845600   5.408531   4.077433
    14  O    6.012391   5.391695   5.440707   6.350624   3.190840
    15  H    6.898271   5.997257   6.255778   7.186684   3.543666
                   11         12         13         14         15
    11  H    0.000000
    12  O    3.594919   0.000000
    13  H    4.447030   0.960115   0.000000
    14  O    4.108897   3.214572   3.647297   0.000000
    15  H    4.434309   4.000016   4.381233   0.961258   0.000000
 Stoichiometry    H6O7SiZr
 Framework group  C1[X(H6O7SiZr)]
 Deg. of freedom    39
 Full point group                 C1      NOp   1
 Largest Abelian subgroup         C1      NOp   1
 Largest concise Abelian subgroup C1      NOp   1
                         Standard orientation:                         
 ---------------------------------------------------------------------
 Center     Atomic      Atomic             Coordinates (Angstroms)
 Number     Number       Type             X           Y           Z
 ---------------------------------------------------------------------
      1         14           0       -2.105433   -0.056729   -0.037415
      2          8           0       -2.887026    0.926743   -1.106766
      3          8           0       -3.041613   -1.415889    0.094603
      4          8           0       -0.583668   -0.482805   -0.457378
      5         40           0        1.310701   -0.020821   -0.037926
      6          1           0       -3.348427    0.460143   -1.812782
      7          1           0       -2.554424   -2.206295    0.352459
      8          8           0       -1.940524    0.800544    1.367005
      9          1           0       -2.683992    1.370171    1.591544
     10          8           0        1.740648   -0.543071    1.800770
     11          1           0        1.743567   -0.156710    2.680467
     12          8           0        1.597422    1.899770   -0.264524
     13          1           0        2.003361    2.561367   -0.829610
     14          8           0        2.450833   -1.031305   -1.271480
     15          1           0        3.199363   -1.633525   -1.239070
 ---------------------------------------------------------------------
 Rotational constants (GHZ):           1.6670603           0.5054337           0.5012965
 Basis read from rwf:  (5D, 7F)
 Pseudo-potential data read from rwf file.
 There are   178 symmetry adapted cartesian basis functions of A   symmetry.
 There are   168 symmetry adapted basis functions of A   symmetry.
   168 basis functions,   339 primitive gaussians,   178 cartesian basis functions
    44 alpha electrons       44 beta electrons
       nuclear repulsion energy       638.8143196832 Hartrees.
 NAtoms=   15 NActive=   15 NUniq=   15 SFac= 1.00D+00 NAtFMM=   60 NAOKFM=F Big=F
 Integral buffers will be    131072 words long.
 Raffenetti 2 integral format.
 Two-electron integral symmetry is turned on.
 One-electron integrals computed using PRISM.
   1 Symmetry operations used in ECPInt.
 ECPInt:  NShTT=    1770 NPrTT=   10201 LenC2=    1642 LenP2D=    6536.
 LDataN:  DoStor=T MaxTD1= 5 Len=  102
 NBasis=   168 RedAO= T EigKep=  1.46D-02  NBF=   168
 NBsUse=   168 1.00D-06 EigRej= -1.00D+00 NBFU=   168
 Defaulting to unpruned grid for atomic number  40.
[...]
 ! R9    R(5,12)                 1.9825         -DE/DX =    0.0                 !
 ! R10   R(5,14)                 1.955          -DE/DX =    0.0                 !
 ! R11   R(8,9)                  0.9657         -DE/DX =    0.0                 !
 ! R12   R(10,11)                0.9625         -DE/DX =    0.0                 !
 ! R13   R(12,13)                0.9637         -DE/DX =    0.0                 !
 ! R14   R(14,15)                0.9606         -DE/DX =    0.0                 !
 ! A1    A(2,1,3)              107.6479         -DE/DX =    0.0                 !
 ! A2    A(2,1,4)              118.3963         -DE/DX =    0.0                 !
 ! A3    A(2,1,8)              105.5777         -DE/DX =    0.0                 !
 ! A4    A(3,1,4)              112.7904         -DE/DX =    0.0                 !
 ! A5    A(3,1,8)              113.7977         -DE/DX =    0.0                 !
 ! A6    A(4,1,8)               98.3253         -DE/DX =    0.0                 !
 ! A7    A(1,2,6)              115.9168         -DE/DX =    0.0                 !
 ! A8    A(1,3,7)              114.5243         -DE/DX =    0.0                 !
 ! A9    A(1,4,5)              109.8594         -DE/DX =    0.0                 !
 ! A10   A(4,5,10)             113.0728         -DE/DX =    0.0                 !
 ! A11   A(4,5,12)             113.749          -DE/DX =    0.0                 !
 ! A12   A(4,5,14)             105.011          -DE/DX =    0.0                 !
 ! A13   A(10,5,12)            114.2236         -DE/DX =    0.0                 !
 ! A14   A(10,5,14)            104.5068         -DE/DX =    0.0                 !
 ! A15   A(12,5,14)            104.9878         -DE/DX =    0.0                 !
 ! A16   A(1,8,9)              116.6348         -DE/DX =    0.0                 !
 ! A17   A(5,10,11)            132.3497         -DE/DX =    0.0                 !
 ! A18   A(5,12,13)            127.3994         -DE/DX =    0.0                 !
 ! A19   A(5,14,15)            142.0123         -DE/DX =    0.0                 !
 ! D1    D(3,1,2,6)            -31.5444         -DE/DX =    0.0                 !
 ! D2    D(4,1,2,6)             97.8074         -DE/DX =    0.0                 !
 ! D3    D(8,1,2,6)           -153.4335         -DE/DX =    0.0                 !
 ! D4    D(2,1,3,7)            151.7163         -DE/DX =    0.0                 !
 ! D5    D(4,1,3,7)             19.2632         -DE/DX =    0.0                 !
 ! D6    D(8,1,3,7)            -91.6494         -DE/DX =    0.0                 !
 ! D7    D(2,1,4,5)            106.6201         -DE/DX =    0.0                 !
 ! D8    D(3,1,4,5)           -126.4409         -DE/DX =    0.0                 !
 ! D9    D(8,1,4,5)             -6.1876         -DE/DX =    0.0                 !
 ! D10   D(2,1,8,9)             -0.7353         -DE/DX =    0.0                 !
 ! D11   D(3,1,8,9)           -118.5698         -DE/DX =    0.0                 !
 ! D12   D(4,1,8,9)            121.9318         -DE/DX =    0.0                 !
 ! D13   D(1,4,5,10)            75.5608         -DE/DX =    0.0                 !
 ! D14   D(1,4,5,12)           -56.8667         -DE/DX =    0.0                 !
 ! D15   D(1,4,5,14)          -171.1033         -DE/DX =    0.0                 !
 ! D16   D(4,5,10,11)          -88.2375         -DE/DX =    0.0                 !
 ! D17   D(12,5,10,11)          43.958          -DE/DX =    0.0                 !
 ! D18   D(14,5,10,11)         158.121          -DE/DX =    0.0                 !
 ! D19   D(4,5,12,13)         -116.9745         -DE/DX =    0.0                 !
 ! D20   D(10,5,12,13)         111.1547         -DE/DX =    0.0                 !
 ! D21   D(14,5,12,13)          -2.7241         -DE/DX =    0.0                 !
 ! D22   D(4,5,14,15)         -117.1594         -DE/DX =    0.0                 !
 ! D23   D(10,5,14,15)           2.082          -DE/DX =    0.0                 !
 ! D24   D(12,5,14,15)         122.6132         -DE/DX =    0.0                 !
 --------------------------------------------------------------------------------
 GradGradGradGradGradGradGradGradGradGradGradGradGradGradGradGradGradGrad

                          Input orientation:                          
 ---------------------------------------------------------------------
 Center     Atomic      Atomic             Coordinates (Angstroms)
 Number     Number       Type             X           Y           Z
 ---------------------------------------------------------------------
      1         14           0       -1.979889   -0.204936   -0.172827
      2          8           0       -2.852114    0.813733   -1.120520
      3          8           0       -3.024805   -1.295457    0.481302
      4          8           0       -0.651987   -0.904344   -0.804835
      5         40           0        1.032509   -0.042712   -0.014089
      6          1           0       -3.627549    0.432688   -1.545687
      7          1           0       -2.633128   -2.152366    0.685185
      8          8           0       -1.217218    0.779878    0.970597
      9          1           0       -1.380656    1.729142    0.902185
     10          8           0        1.403963   -0.624672    1.829531
     11          1           0        1.116352   -0.290827    2.685206
     12          8           0        1.126828    1.919321   -0.282352
     13          1           0        1.785917    2.410272   -0.785681
     14          8           0        2.513140   -0.768360   -1.064392
     15          1           0        3.306230   -1.304519   -0.985133
 ---------------------------------------------------------------------
                    Distance matrix (angstroms):
                    1          2          3          4          5
     1  Si   0.000000
     2  O    1.642128   0.000000
     3  O    1.645894   2.654117   0.000000
     4  O    1.628475   2.809272   2.727156   0.000000
     5  Zr   3.020936   4.128921   4.275111   2.050662   0.000000
     6  H    2.237430   0.962945   2.731020   3.345219   4.928280
     7  H    2.226071   3.479407   0.963988   2.775363   4.286784
     8  O    1.690840   2.654581   2.795316   2.511622   2.589890
     9  H    2.292463   2.663549   3.468222   3.221820   3.130877
    10  O    3.954247   5.374570   4.677784   3.353361   1.968652
    11  H    4.214551   5.608237   4.797463   3.960280   2.711971
    12  O    3.765123   4.213885   5.306036   3.377907   1.982533
    13  H    4.625602   4.916542   6.203282   4.114659   2.679573
    14  O    4.615154   5.593936   5.773719   3.178661   1.954986
    15  H    5.460035   6.513872   6.498655   3.982478   2.775769
                    6          7          8          9         10
     6  H    0.000000
     7  H    3.556427   0.000000
     8  O    3.501703   3.268687   0.000000
     9  H    3.566707   4.084346   0.965658   0.000000
    10  O    6.150303   4.465589   3.095338   3.762249   0.000000
    11  H    6.397541   4.639398   3.087368   3.673484   0.962473
    12  O    5.139085   5.626014   2.891844   2.779707   3.317944
    13  H    5.813266   6.519898   3.842072   3.652399   4.024438
    14  O    6.275526   5.608972   4.522587   5.026588   3.102533
    15  H    7.170036   6.227743   5.350811   5.893384   3.464556
                   11         12         13         14         15
    11  H    0.000000
    12  O    3.700171   0.000000
    13  H    4.448743   0.963728   0.000000
    14  O    4.029708   3.123633   3.272650   0.000000
    15  H    4.392554   3.954345   4.018806   0.960594   0.000000
 Stoichiometry    H6O7SiZr
 Framework group  C1[X(H6O7SiZr)]
 Deg. of freedom    39
 Full point group                 C1      NOp   1
 Largest Abelian subgroup         C1      NOp   1
 Largest concise Abelian subgroup C1      NOp   1
                         Standard orientation:                         
 ---------------------------------------------------------------------
 Center     Atomic      Atomic             Coordinates (Angstroms)
 Number     Number       Type             X           Y           Z
 ---------------------------------------------------------------------
      1         14           0       -1.906984   -0.040926   -0.131872
      2          8           0       -2.776612    1.331825   -0.368278
      3          8           0       -2.964715   -1.301381   -0.094093
      4          8           0       -0.625393   -0.321605   -1.096587
      5         40           0        1.112802   -0.017382   -0.051913
      6          1           0       -3.578331    1.237006   -0.893176
      7          1           0       -2.595049   -2.142801   -0.385011
      8          8           0       -1.073455    0.194033    1.320355
      9          1           0       -1.207452    1.041082    1.764255
     10          8           0        1.527281   -1.480043    1.198854
     11          1           0        1.280257   -1.638933    2.115416
     12          8           0        1.263159    1.795023    0.737402
     13          1           0        1.920688    2.469493    0.533647
     14          8           0        2.531824   -0.103707   -1.393887
     15          1           0        3.308875   -0.610769   -1.642525
 ---------------------------------------------------------------------
 Rotational constants (GHZ):           1.7699313           0.6100015           0.5842437

 **********************************************************************

            Population analysis using the SCF Density.

 **********************************************************************

 Orbital symmetries:
       Occupied  (A) (A) (A) (A) (A) (A) (A) (A) (A) (A) (A) (A)
                 (A) (A) (A) (A) (A) (A) (A) (A) (A) (A) (A) (A)
                 (A) (A) (A) (A) (A) (A) (A) (A) (A) (A) (A) (A)
                 (A) (A) (A) (A) (A) (A) (A) (A)
       Virtual   (A) (A) (A) (A) (A) (A) (A) (A) (A) (A) (A) (A)
                 (A) (A) (A) (A) (A) (A) (A) (A) (A) (A) (A) (A)
                 (A) (A) (A) (A) (A) (A) (A) (A) (A) (A) (A) (A)
                 (A) (A) (A) (A) (A) (A) (A) (A) (A) (A) (A) (A)
                 (A) (A) (A) (A) (A) (A) (A) (A) (A) (A) (A) (A)
                 (A) (A) (A) (A) (A) (A) (A) (A) (A) (A) (A) (A)
                 (A) (A) (A) (A) (A) (A) (A) (A) (A) (A) (A) (A)
                 (A) (A) (A) (A) (A) (A) (A) (A) (A) (A) (A) (A)
                 (A) (A) (A) (A) (A) (A) (A) (A) (A) (A) (A) (A)
                 (A) (A) (A) (A) (A) (A) (A) (A) (A) (A) (A) (A)
                 (A) (A) (A) (A)
 The electronic state is 1-A.
 Alpha  occ. eigenvalues --  -66.19775 -19.16646 -19.15429 -19.15358 -19.13480
 Alpha  occ. eigenvalues --  -19.13066 -19.13055 -19.12206  -5.34134  -3.70128
 Alpha  occ. eigenvalues --   -3.70061  -3.69993  -2.05678  -1.26362  -1.26270
 Alpha  occ. eigenvalues --   -1.25865  -1.03570  -1.00786  -1.00000  -0.95174
 Alpha  occ. eigenvalues --   -0.94434  -0.93946  -0.93004  -0.57983  -0.53331
 Alpha  occ. eigenvalues --   -0.52322  -0.48079  -0.47115  -0.46556  -0.43347
 Alpha  occ. eigenvalues --   -0.39812  -0.39316  -0.37915  -0.36080  -0.34823
 Alpha  occ. eigenvalues --   -0.34051  -0.33813  -0.33382  -0.32281  -0.31604
 Alpha  occ. eigenvalues --   -0.30660  -0.30419  -0.30152  -0.29662
 Alpha virt. eigenvalues --   -0.01648  -0.01005  -0.00176   0.00589   0.01592
 Alpha virt. eigenvalues --    0.02188   0.02991   0.03241   0.04972   0.08327
 Alpha virt. eigenvalues --    0.09400   0.12276   0.14423   0.15251   0.16164
 Alpha virt. eigenvalues --    0.17007   0.17936   0.18909   0.19589   0.23445
 Alpha virt. eigenvalues --    0.23776   0.24624   0.25095   0.26506   0.28687
 Alpha virt. eigenvalues --    0.30623   0.32003   0.33390   0.38427   0.38961
 Alpha virt. eigenvalues --    0.41345   0.56070   0.63308   0.73459   0.78887
 Alpha virt. eigenvalues --    0.80322   0.84316   0.86439   0.87315   0.89504
 Alpha virt. eigenvalues --    0.90654   0.91296   0.92800   0.94919   0.95549
 Alpha virt. eigenvalues --    0.97053   0.98207   1.00294   1.02131   1.03899
 Alpha virt. eigenvalues --    1.07568   1.07844   1.08759   1.10061   1.12630
 Alpha virt. eigenvalues --    1.14556   1.15595   1.19257   1.19746   1.21478
 Alpha virt. eigenvalues --    1.23811   1.25466   1.28569   1.38326   1.47501
 Alpha virt. eigenvalues --    1.48481   1.50782   1.51516   1.52683   1.56353
 Alpha virt. eigenvalues --    1.57627   1.58254   1.59947   1.60917   1.63197
 Alpha virt. eigenvalues --    1.63651   1.64644   1.68114   1.68905   1.70959
 Alpha virt. eigenvalues --    1.73152   1.75318   1.80172   1.80416   1.81691
 Alpha virt. eigenvalues --    1.82835   1.83764   1.85608   1.86775   1.88336
 Alpha virt. eigenvalues --    1.91181   1.92479   2.00814   2.08574   2.13534
 Alpha virt. eigenvalues --    2.35308   2.35664   2.36330   2.37668   2.38483
 Alpha virt. eigenvalues --    2.39805   2.43205   2.55929   2.59270   2.62061
 Alpha virt. eigenvalues --    2.62743   2.63871   2.64202   2.64374   2.64858
 Alpha virt. eigenvalues --    2.65145   2.65342   2.66080   2.66512   2.72279
 Alpha virt. eigenvalues --    2.77396   2.81981   3.40788   3.42206   3.42867
 Alpha virt. eigenvalues --    3.44012   3.45789   3.46480   4.29692
          Condensed to atoms (all electrons):
               1          2          3          4          5          6
     1  Si  11.566499   0.387528   0.394692   0.343532  -0.098166  -0.022052
     2  O    0.387528   7.951281  -0.020218  -0.010607   0.005249   0.304310
     3  O    0.394692  -0.020218   7.943779  -0.016984  -0.000028  -0.001016
     4  O    0.343532  -0.010607  -0.016984   8.267778   0.191798  -0.000297
     5  Zr  -0.098166   0.005249  -0.000028   0.191798   9.788365  -0.000926
     6  H   -0.022052   0.304310  -0.001016  -0.000297  -0.000926   0.379478
     7  H   -0.017705   0.000382   0.301745   0.001215  -0.003062  -0.000044
     8  O    0.259809  -0.018347  -0.012716  -0.039205   0.102111   0.000626
     9  H   -0.009249   0.000940  -0.000224   0.000822  -0.011345   0.000009
    10  O   -0.006972  -0.000000   0.000001   0.000191   0.226875  -0.000000
    11  H    0.000125  -0.000000   0.000000  -0.000082  -0.017176   0.000000
    12  O   -0.008301   0.000001  -0.000000   0.000307   0.226622   0.000000
    13  H    0.000427  -0.000002   0.000000  -0.000020  -0.017186  -0.000000
    14  O   -0.000528   0.000000  -0.000000   0.000683   0.210267   0.000000
    15  H   -0.000002  -0.000000   0.000000  -0.000059  -0.014378  -0.000000
               7          8          9         10         11         12
     1  Si  -0.017705   0.259809  -0.009249  -0.006972   0.000125  -0.008301
     2  O    0.000382  -0.018347   0.000940  -0.000000  -0.000000   0.000001
     3  O    0.301745  -0.012716  -0.000224   0.000001   0.000000  -0.000000
     4  O    0.001215  -0.039205   0.000822   0.000191  -0.000082   0.000307
     5  Zr  -0.003062   0.102111  -0.011345   0.226875  -0.017176   0.226622
     6  H   -0.000044   0.000626   0.000009  -0.000000   0.000000   0.000000
     7  H    0.382164  -0.000194   0.000053  -0.000003  -0.000001  -0.000000
     8  O   -0.000194   8.063117   0.297473  -0.003706  -0.000672  -0.006330
     9  H    0.000053   0.297473   0.359647  -0.000124  -0.000026   0.001690
    10  O   -0.000003  -0.003706  -0.000124   8.175901   0.295116   0.000746
    11  H   -0.000001  -0.000672  -0.000026   0.295116   0.392309  -0.000307
    12  O   -0.000000  -0.006330   0.001690   0.000746  -0.000307   8.192590
    13  H   -0.000000   0.000231  -0.000062  -0.000060  -0.000000   0.291555
    14  O   -0.000000  -0.000055   0.000005   0.000850   0.000013   0.000528
    15  H    0.000000  -0.000001  -0.000000  -0.000522   0.000001  -0.000098
              13         14         15
     1  Si   0.000427  -0.000528  -0.000002
     2  O   -0.000002   0.000000  -0.000000
     3  O    0.000000  -0.000000   0.000000
     4  O   -0.000020   0.000683  -0.000059
     5  Zr  -0.017186   0.210267  -0.014378
     6  H   -0.000000   0.000000  -0.000000
     7  H   -0.000000  -0.000000   0.000000
     8  O    0.000231  -0.000055  -0.000001
     9  H   -0.000062   0.000005  -0.000000
    10  O   -0.000060   0.000850  -0.000522
    11  H   -0.000000   0.000013   0.000001
    12  O    0.291555   0.000528  -0.000098
    13  H    0.398211  -0.001474  -0.000000
    14  O   -0.001474   8.181867   0.298784
    15  H   -0.000000   0.298784   0.383458
 Mulliken charges:
               1
     1  Si   1.210365
     2  O   -0.600517
     3  O   -0.589030
     4  O   -0.739073
     5  Zr   1.410981
     6  H    0.339910
     7  H    0.335450
     8  O   -0.642142
     9  H    0.360391
    10  O   -0.688292
    11  H    0.330702
    12  O   -0.699004
    13  H    0.328381
    14  O   -0.690940
    15  H    0.332818
 Sum of Mulliken charges =  -0.00000
 Mulliken charges with hydrogens summed into heavy atoms:
               1
     1  Si   1.210365
     2  O   -0.260607
     3  O   -0.253580
     4  O   -0.739073
     5  Zr   1.410981
     8  O   -0.281751
    10  O   -0.357590
    12  O   -0.370622
    14  O   -0.358123
 Electronic spatial extent (au):  <R**2>=           1891.1392
 Charge=             -0.0000 electrons
 Dipole moment (field-independent basis, Debye):
    X=              0.1206    Y=             -0.1411    Z=              0.5691  Tot=              0.5986
 Quadrupole moment (field-independent basis, Debye-Ang):
   XX=            -64.9350   YY=            -69.3989   ZZ=            -71.8670
   XY=              0.9329   XZ=              1.7176   YZ=              1.3796
 Traceless Quadrupole moment (field-independent basis, Debye-Ang):
   XX=              3.7987   YY=             -0.6653   ZZ=             -3.1334
   XY=              0.9329   XZ=              1.7176   YZ=              1.3796
 Octapole moment (field-independent basis, Debye-Ang**2):
  XXX=             38.9942  YYY=             -3.8326  ZZZ=             18.4217  XYY=              9.1901
  XXY=             12.5598  XXZ=            -28.6994  XZZ=              7.4523  YZZ=             -4.5918
  YYZ=             -1.3821  XYZ=              3.0971
 Hexadecapole moment (field-independent basis, Debye-Ang**3):
 XXXX=          -1345.6965 YYYY=           -372.6998 ZZZZ=           -318.2510 XXXY=            -72.2020
 XXXZ=             17.4864 YYYX=             76.7780 YYYZ=              8.3975 ZZZX=              4.0250
 ZZZY=            -12.3016 XXYY=           -284.3158 XXZZ=           -271.9565 YYZZ=           -111.0122
 XXYZ=             21.4719 YYXZ=              5.1751 ZZXY=            -33.5031
 N-N= 6.634160317835D+02 E-N=-3.363173773847D+03  KE= 8.297818705703D+02
 1\1\GINC-GRA703\FOpt\RB3LYP\Gen\H6O7Si1Zr1\SARASHS\20-Jun-2020\0\\#n B
 3LYP/GEN PSEUDO=READ Opt\\Title\\0,1\Si,-1.9798891335,-0.2049358509,-0
 .172826638\O,-2.8521143084,0.8137333445,-1.1205196572\O,-3.0248048128,
 -1.2954566017,0.4813015671\O,-0.651986796,-0.9043439166,-0.8048351874\
 Zr,1.0325088557,-0.0427122394,-0.0140889095\H,-3.6275494773,0.43268786
 67,-1.5456871385\H,-2.6331277782,-2.1523663914,0.6851850272\O,-1.21721
 83406,0.7798775132,0.9705968436\H,-1.380656422,1.7291416784,0.90218491
 23\O,1.4039632682,-0.6246717372,1.8295308199\H,1.1163516031,-0.2908265
 047,2.6852064295\O,1.1268275778,1.9193212757,-0.282352018\H,1.78591676
 02,2.4102717863,-0.785681259\O,2.5131396968,-0.7683604306,-1.064392467
 9\H,3.3062303071,-1.3045187925,-0.9851333241\\Version=ES64L-G16RevB.01
 \State=1-A\HF=-866.6889967\RMSD=6.658e-09\RMSF=1.761e-05\Dipole=0.0375
 95,0.0709077,0.2214011\Quadrupole=2.6806009,0.0061097,-2.6867106,1.361
 7175,0.92434,-0.2775387\PG=C01 [X(H6O7Si1Zr1)]\\@


 HERE WE GO......
 SLIDING DOWN THE RAZOR BLADE OF LIFE......
                                 TOM LEHRER
 Job cpu time:       0 days  1 hours 18 minutes 30.5 seconds.
 Elapsed time:       0 days  0 hours  5 minutes  6.5 seconds.
 File lengths (MBytes):  RWF=     23 Int=      0 D2E=      0 Chk=      3 Scr=      1
 Normal termination of Gaussian 16 at Sat Jun 20 19:14:14 2020.
